LAMMPS data file Created by LigParGen - (Written by Leela S. Dodda)

     102 atoms
     106 bonds
     202 angles
     274 dihedrals
      61 impropers
 
     102 atom types
     106 bond types
     202 angle types
     274 dihedral types
      61 improper types
 
   -1.614600    48.385400 xlo xhi
   -6.179460    43.820540 ylo yhi
    0.000000    50.000000 zlo zhi

Masses

       1      1.008  
       2     15.999  
       3     12.011  
       4     12.011  
       5     15.999  
       6     12.011    
       8      1.008  
       9     12.011  
      10      1.008  
      11      1.008  
      12     15.999  
      13     15.999  
      14     12.011  
      15     12.011  
      16      1.008  
      17      1.008  
      18     28.085  
      19      1.008  
      20      1.008  
      21     15.999  
      22     15.999  
      23     15.999  
      24     28.085  
      25     28.085  
      26     28.085  
      27     15.999  
      28     15.999  
      29     12.011  
      30     15.999  
      31     15.999  
      32     12.011  
      33     15.999  
      34     15.999  
      35     12.011  
      36     28.085  
      37     28.085  
      38      1.008  
      39      1.008  
      40      1.008  
      41     28.085  
      42      1.008  
      43      1.008  
      44      1.008  
      45      1.008  
      46      1.008  
      47      1.008  
      48     15.999  
      49     12.011  
      50     15.999  
      51     12.011  
      52     15.999  
      53     12.011  
      54     28.085  
      55      1.008  
      56      1.008  
      57      1.008  
      58      1.008  
      59      1.008  
      60      1.008  
      61      1.008  
      62      1.008  
      63      1.008  
      64     12.011  
      65     12.011  
      66      1.008  
      67      1.008  
      68     28.085  
      69      1.008  
      70      1.008  
      71     12.011  
      72     12.011  
      73     15.999  
      74      1.008  
      75      1.008  
      76      1.008  
      77      1.008  
      78      1.008  
      79      1.008  
      80     28.085  
      81     12.011  
      82     12.011  
      83     15.999  
      84      1.008  
      85      1.008  
      86      1.008  
      87      1.008  
      88      1.008  
      89      1.008  
      90     28.085  
      91     12.011  
      92     12.011  
      93     12.011  
      94      1.008  
      95      1.008  
      96      1.008  
      97      1.008  
      98      1.008  
      99      1.008  
     100      1.008  
     101      1.008  
     102      1.008  

Pair Coeffs 

       1      0.030  2.5000000 
       2      0.170  3.1200000 
       3      0.070  3.5500000 
       4      0.066  3.5000000 
       5      0.210  2.9600000 
       6      0.066  3.5000000 
       8      0.030  2.5000000 
       9      0.070  3.5500000 
      10      0.030  2.5000000 
      11      0.030  2.5000000 
      12      0.140  2.9000000 
      13      0.210  2.9600000 
      14      0.066  3.5000000 
      15      0.066  3.5000000 
      16      0.030  2.5000000 
      17      0.030  2.5000000 
      18      0.100  4.0000000 
      19      0.030  2.5000000 
      20      0.030  2.5000000 
      21      0.140  2.9000000 
      22      0.140  2.9000000 
      23      0.140  2.9000000 
      24      0.100  4.0000000 
      25      0.100  4.0000000 
      26      0.100  4.0000000 
      27      0.140  2.9000000 
      28      0.140  2.9000000 
      29      0.066  3.5000000 
      30      0.140  2.9000000 
      31      0.140  2.9000000 
      32      0.066  3.5000000 
      33      0.140  2.9000000 
      34      0.140  2.9000000 
      35      0.066  3.5000000 
      36      0.100  4.0000000 
      37      0.100  4.0000000 
      38      0.030  2.5000000 
      39      0.030  2.5000000 
      40      0.030  2.5000000 
      41      0.100  4.0000000 
      42      0.030  2.5000000 
      43      0.030  2.5000000 
      44      0.030  2.5000000 
      45      0.030  2.5000000 
      46      0.030  2.5000000 
      47      0.030  2.5000000 
      48      0.140  2.9000000 
      49      0.066  3.5000000 
      50      0.140  2.9000000 
      51      0.066  3.5000000 
      52      0.140  2.9000000 
      53      0.066  3.5000000 
      54      0.100  4.0000000 
      55      0.030  2.5000000 
      56      0.030  2.5000000 
      57      0.030  2.5000000 
      58      0.030  2.5000000 
      59      0.030  2.5000000 
      60      0.030  2.5000000 
      61      0.030  2.5000000 
      62      0.030  2.5000000 
      63      0.030  2.5000000 
      64      0.066  3.5000000 
      65      0.066  3.5000000 
      66      0.030  2.5000000 
      67      0.030  2.5000000 
      68      0.100  4.0000000 
      69      0.030  2.5000000 
      70      0.030  2.5000000 
      71      0.066  3.5000000 
      72      0.066  3.5000000 
      73      0.140  2.9000000 
      74      0.030  2.5000000 
      75      0.030  2.5000000 
      76      0.030  2.5000000 
      77      0.030  2.5000000 
      78      0.030  2.5000000 
      79      0.030  2.5000000 
      80      0.100  4.0000000 
      81      0.066  3.5000000 
      82      0.066  3.5000000 
      83      0.140  2.9000000 
      84      0.030  2.5000000 
      85      0.030  2.5000000 
      86      0.030  2.5000000 
      87      0.030  2.5000000 
      88      0.030  2.5000000 
      89      0.030  2.5000000 
      90      0.100  4.0000000 
      91      0.066  3.5000000 
      92      0.066  3.5000000 
      93      0.066  3.5000000 
      94      0.030  2.5000000 
      95      0.030  2.5000000 
      96      0.030  2.5000000 
      97      0.030  2.5000000 
      98      0.030  2.5000000 
      99      0.030  2.5000000 
     100      0.030  2.5000000 
     101      0.030  2.5000000 
     102      0.030  2.5000000 

Bond Coeffs 

       1   553.0000     0.9450 
       2   450.0000     1.3640 
       3   317.0000     1.5220 
       4   570.0000     1.2290 
       5   268.0000     1.5290 
       6   340.0000     1.0900 
       7   340.0000     1.0900 
       8   317.0000     1.5220 
       9   340.0000     1.0900 
      10   340.0000     1.0900 
      11   214.0000     1.3270 
      12   570.0000     1.2290 
      13   320.0000     1.4100 
      14   268.0000     1.5290 
      15   340.0000     1.0900 
      16   340.0000     1.0900 
      17   187.0000     1.8600 
      18   340.0000     1.0900 
      19   340.0000     1.0900 
      20   374.0000     1.6400 
      21   374.0000     1.6400 
      22   374.0000     1.6400 
      23   374.0000     1.6400 
      24   374.0000     1.6400 
      25   374.0000     1.6400 
      26   374.0000     1.6400 
      27   374.0000     1.6400 
      28   187.0000     1.8600 
      29   374.0000     1.6400 
      30   374.0000     1.6400 
      31   187.0000     1.8600 
      32   374.0000     1.6400 
      33   374.0000     1.6400 
      34   187.0000     1.8600 
      35   374.0000     1.6400 
      36   374.0000     1.6400 
      37   340.0000     1.0900 
      38   340.0000     1.0900 
      39   340.0000     1.0900 
      40   374.0000     1.6400 
      41   340.0000     1.0900 
      42   340.0000     1.0900 
      43   340.0000     1.0900 
      44   340.0000     1.0900 
      45   340.0000     1.0900 
      46   340.0000     1.0900 
      47   374.0000     1.6400 
      48   187.0000     1.8600 
      49   374.0000     1.6400 
      50   187.0000     1.8600 
      51   374.0000     1.6400 
      52   187.0000     1.8600 
      53   374.0000     1.6400 
      54   340.0000     1.0900 
      55   340.0000     1.0900 
      56   340.0000     1.0900 
      57   340.0000     1.0900 
      58   340.0000     1.0900 
      59   340.0000     1.0900 
      60   340.0000     1.0900 
      61   340.0000     1.0900 
      62   340.0000     1.0900 
      63   187.0000     1.8600 
      64   268.0000     1.5290 
      65   340.0000     1.0900 
      66   340.0000     1.0900 
      67   187.0000     1.8600 
      68   340.0000     1.0900 
      69   340.0000     1.0900 
      70   187.0000     1.8600 
      71   187.0000     1.8600 
      72   374.0000     1.6400 
      73   340.0000     1.0900 
      74   340.0000     1.0900 
      75   340.0000     1.0900 
      76   340.0000     1.0900 
      77   340.0000     1.0900 
      78   340.0000     1.0900 
      79   374.0000     1.6400 
      80   187.0000     1.8600 
      81   187.0000     1.8600 
      82   374.0000     1.6400 
      83   340.0000     1.0900 
      84   340.0000     1.0900 
      85   340.0000     1.0900 
      86   340.0000     1.0900 
      87   340.0000     1.0900 
      88   340.0000     1.0900 
      89   374.0000     1.6400 
      90   187.0000     1.8600 
      91   187.0000     1.8600 
      92   187.0000     1.8600 
      93   340.0000     1.0900 
      94   340.0000     1.0900 
      95   340.0000     1.0900 
      96   340.0000     1.0900 
      97   340.0000     1.0900 
      98   340.0000     1.0900 
      99   340.0000     1.0900 
     100   340.0000     1.0900 
     101   340.0000     1.0900 
     102   374.0000     1.6400 
     103   374.0000     1.6400 
     104   374.0000     1.6400 
     105   374.0000     1.6400 
     106   374.0000     1.6400 

Angle Coeffs 

       1     35.000    113.000
       2     70.000    108.000
       3     80.000    121.000
       4     63.000    111.100
       5     35.000    109.500
       6     35.000    109.500
       7     63.000    111.100
       8     37.500    110.700
       9     37.500    110.700
      10     81.000    111.400
      11     80.000    120.400
      12     83.000    116.900
      13     50.000    109.500
      14     35.000    109.500
      15     35.000    109.500
      16     60.000    112.000
      17     37.500    110.700
      18     37.500    110.700
      19     60.000    100.000
      20     60.000    100.000
      21     60.000    100.000
      22     20.000    145.000
      23     20.000    145.000
      24     20.000    145.000
      25     60.000    110.000
      26     60.000    110.000
      27     60.000    100.000
      28     60.000    110.000
      29     60.000    110.000
      30     60.000    100.000
      31     60.000    110.000
      32     60.000    110.000
      33     60.000    100.000
      34     20.000    145.000
      35     20.000    145.000
      36     35.000    109.500
      37     35.000    109.500
      38     35.000    109.500
      39     20.000    145.000
      40     35.000    109.500
      41     35.000    109.500
      42     35.000    109.500
      43     35.000    109.500
      44     35.000    109.500
      45     35.000    109.500
      46     60.000    110.000
      47     60.000    100.000
      48     60.000    110.000
      49     60.000    100.000
      50     60.000    110.000
      51     60.000    100.000
      52     20.000    145.000
      53     35.000    109.500
      54     35.000    109.500
      55     35.000    109.500
      56     35.000    109.500
      57     35.000    109.500
      58     35.000    109.500
      59     35.000    109.500
      60     35.000    109.500
      61     35.000    109.500
      62     60.000    100.000
      63     60.000    112.000
      64     35.000    109.500
      65     35.000    109.500
      66     60.000    112.000
      67     37.500    110.700
      68     37.500    110.700
      69     60.000    110.000
      70     60.000    110.000
      71     60.000    100.000
      72     35.000    109.500
      73     35.000    109.500
      74     35.000    109.500
      75     35.000    109.500
      76     35.000    109.500
      77     35.000    109.500
      78     20.000    145.000
      79     60.000    100.000
      80     60.000    100.000
      81     60.000    110.000
      82     35.000    109.500
      83     35.000    109.500
      84     35.000    109.500
      85     35.000    109.500
      86     35.000    109.500
      87     35.000    109.500
      88     20.000    145.000
      89     60.000    100.000
      90     60.000    100.000
      91     60.000    100.000
      92     35.000    109.500
      93     35.000    109.500
      94     35.000    109.500
      95     35.000    109.500
      96     35.000    109.500
      97     35.000    109.500
      98     35.000    109.500
      99     35.000    109.500
     100     35.000    109.500
     101     33.000    107.800
     102     83.000    123.400
     103     60.000    110.000
     104     60.000    110.000
     105     33.000    107.800
     106     60.000    110.000
     107     33.000    107.800
     108     60.000    100.000
     109     33.000    107.800
     110     33.000    107.800
     111     33.000    107.800
     112     60.000    100.000
     113     35.000    109.500
     114     60.000    110.000
     115     20.000    145.000
     116     60.000    110.000
     117     33.000    107.800
     118     33.000    107.800
     119     33.000    107.800
     120     60.000    100.000
     121     37.500    110.700
     122     20.000    145.000
     123     33.000    107.800
     124     60.000    100.000
     125     60.000    100.000
     126     60.000    110.000
     127     35.000    109.500
     128     37.500    110.700
     129     33.000    107.800
     130     33.000    107.800
     131     60.000    100.000
     132     33.000    107.800
     133     80.000    120.400
     134     20.000    145.000
     135     33.000    107.800
     136     33.000    107.800
     137     33.000    107.800
     138     37.500    110.700
     139     33.000    107.800
     140     35.000    109.500
     141     60.000    100.000
     142     33.000    107.800
     143     37.500    110.700
     144     33.000    107.800
     145     33.000    107.800
     146     60.000    110.000
     147     33.000    107.800
     148     35.000    109.500
     149     60.000    100.000
     150     33.000    107.800
     151     60.000    100.000
     152     33.000    107.800
     153     35.000    109.500
     154     60.000    110.000
     155     60.000    100.000
     156     60.000    110.000
     157     33.000    107.800
     158     33.000    107.800
     159     60.000    110.000
     160     37.500    110.700
     161     60.000    110.000
     162     33.000    107.800
     163     60.000    100.000
     164     33.000    107.800
     165     33.000    107.800
     166     33.000    107.800
     167     33.000    107.800
     168     60.000    110.000
     169     60.000    110.000
     170     33.000    107.800
     171     35.000    109.500
     172     33.000    107.800
     173     33.000    107.800
     174     33.000    107.800
     175     33.000    107.800
     176     33.000    107.800
     177     60.000    100.000
     178     60.000    110.000
     179     20.000    145.000
     180     60.000    100.000
     181     33.000    107.800
     182     60.000    110.000
     183     20.000    145.000
     184     37.500    110.700
     185     33.000    107.800
     186     60.000    100.000
     187     33.000    107.800
     188     33.000    107.800
     189     33.000    107.800
     190     33.000    107.800
     191     60.000    100.000
     192     60.000    100.000
     193     33.000    107.800
     194     60.000    100.000
     195     33.000    107.800
     196     60.000    110.000
     197     60.000    110.000
     198     60.000    110.000
     199     60.000    110.000
     200     33.000    107.800
     201     60.000    110.000
     202     60.000    100.000

Dihedral Coeffs  

       1      1.500      5.500      0.000      0.000 
       2      1.000      0.546      0.450      0.000 
       3     -0.550      0.000      1.000      0.000 
       4      0.000      0.000     -0.553      0.000 
       5      4.669      5.124      0.000      0.000 
       6     -1.220     -0.126      0.422      0.000 
       7      0.000      0.000      0.468      0.000 
       8      0.000      0.000      0.000      0.000 
       9      0.000      0.000      0.000      0.000 
      10      0.000      0.000      0.000      0.000 
      11      0.000      0.000      0.000      0.000 
      12      0.000      0.000      0.000      0.000 
      13      0.000      0.000      0.000      0.000 
      14      0.000      0.000      0.000      0.000 
      15      0.000      0.000      0.000      0.000 
      16      0.000      0.000      0.000      0.000 
      17      0.000      0.000      0.000      0.000 
      18      0.000      0.000      0.000      0.000 
      19      0.000      0.000      0.000      0.000 
      20      0.000      0.000      0.000      0.000 
      21      0.000      0.000      0.000      0.000 
      22      0.000      0.000      0.000      0.000 
      23      0.000      0.000      0.000      0.000 
      24      0.000      0.000      0.000      0.000 
      25      0.000      0.000      0.000      0.000 
      26      5.200     -0.500      0.000      0.000 
      27      1.000      0.000      0.000      0.000 
      28      0.000      0.000      0.180      0.000 
      29      0.000      0.000      0.180      0.000 
      30      0.000      0.000      0.000      0.000 
      31      0.000      0.000      0.000      0.000 
      32      0.000      0.000      0.000      0.000 
      33      0.000      0.000      0.000      0.000 
      34      0.000      0.000      0.000      0.000 
      35      0.000      0.000      0.000      0.000 
      36      0.000      0.000      0.000      0.000 
      37      0.000      0.000      0.000      0.000 
      38      0.000      0.000      0.000      0.000 
      39      0.000      0.000      0.000      0.000 
      40      0.000      0.000      0.000      0.000 
      41      0.000      0.000      0.000      0.000 
      42      0.000      0.000      0.000      0.000 
      43      0.000      0.000      0.000      0.000 
      44      0.000      0.000      0.000      0.000 
      45      0.000      0.000      0.300      0.000 
      46      0.000      0.000      0.000      0.000 
      47      0.000      0.000      0.000      0.000 
      48      0.000      0.000      0.000      0.000 
      49      0.000      0.000      0.000      0.000 
      50      0.000      0.000      0.450      0.000 
      51      0.000      0.000      0.180      0.000 
      52      0.000      0.000      0.000      0.000 
      53      0.000      0.000      0.000      0.000 
      54      0.000      0.000      0.000      0.000 
      55      0.000      0.000      0.000      0.000 
      56      0.000      0.000      0.300      0.000 
      57      0.000      0.000      0.300      0.000 
      58      0.000      0.000      0.000      0.000 
      59      0.000      0.000      0.000      0.000 
      60      0.000      0.000      0.180      0.000 
      61      0.000      0.000      0.000      0.000 
      62      0.000      0.000     -0.100      0.000 
      63      0.000      0.000      0.000      0.000 
      64      0.000      0.000      0.000      0.000 
      65      0.000      0.000      0.000      0.000 
      66      0.000      0.000      0.000      0.000 
      67      0.000      0.000      0.180      0.000 
      68      0.000      0.000      0.000      0.000 
      69      0.000      0.000      0.000      0.000 
      70      0.000      0.000      0.000      0.000 
      71      0.000      0.000      0.000      0.000 
      72      0.000      0.000      0.000      0.000 
      73      0.000      0.000      0.000      0.000 
      74      0.000      0.000      0.300      0.000 
      75      0.000      0.000     -0.100      0.000 
      76      0.000      0.000      0.450      0.000 
      77      0.000      0.000      0.000      0.000 
      78      0.000      0.000      0.000      0.000 
      79      0.000      0.000      0.000      0.000 
      80      0.000      0.000      0.000      0.000 
      81      0.000      0.000      0.000      0.000 
      82      0.000      0.000      0.000      0.000 
      83      0.000      0.000      0.180      0.000 
      84      0.000      0.000      0.000      0.000 
      85      0.000      0.000      0.198      0.000 
      86      0.000      0.000      0.000      0.000 
      87      0.000      0.000      0.000      0.000 
      88      0.000      0.000      0.000      0.000 
      89      0.000      0.000      0.000      0.000 
      90      0.000      0.000      0.000      0.000 
      91      0.000      0.000      0.180      0.000 
      92      1.000      0.000      0.000      0.000 
      93      0.000      0.000      0.180      0.000 
      94      0.000      0.000      0.000      0.000 
      95      0.000      0.000      0.000      0.000 
      96      0.000      0.000      0.000      0.000 
      97      0.000      0.000      0.000      0.000 
      98      0.000      0.000      0.180      0.000 
      99      0.000      0.000      0.000      0.000 
     100      0.000      0.000      0.300      0.000 
     101      0.000      0.000      0.450      0.000 
     102      0.000      0.000      0.180      0.000 
     103      0.000      0.000      0.000      0.000 
     104      0.000      0.000      0.000      0.000 
     105      0.000      0.000      0.000      0.000 
     106      0.000      0.000      0.180      0.000 
     107      0.000      0.000      0.000      0.000 
     108      0.000      0.000      0.180      0.000 
     109      0.000      0.000      0.132      0.000 
     110      0.000      0.000      0.000      0.000 
     111      0.000      0.000      0.180      0.000 
     112      0.000      0.000      0.000      0.000 
     113      0.000      0.000      0.000      0.000 
     114      0.000      0.000      0.000      0.000 
     115      0.000      0.000      0.000      0.000 
     116      0.000      0.000      0.180      0.000 
     117      0.000      0.000      0.000      0.000 
     118      0.000      0.000      0.000      0.000 
     119      0.000      0.000      0.180      0.000 
     120      0.000      0.000      0.000      0.000 
     121      0.000      0.000      0.000      0.000 
     122      0.000      0.000      0.000      0.000 
     123      0.000      0.000      0.000      0.000 
     124      0.000      0.000      0.000      0.000 
     125      0.000      0.000      0.000      0.000 
     126      0.000      0.000      0.000      0.000 
     127      0.000      0.000      0.000      0.000 
     128      0.000      0.000      0.000      0.000 
     129      0.000      0.000      0.000      0.000 
     130      0.000      0.000      0.000      0.000 
     131      0.000      0.000      0.000      0.000 
     132      0.000      0.000      0.180      0.000 
     133      0.000      0.000     -0.100      0.000 
     134      0.000      0.000      0.000      0.000 
     135      0.000      0.000      0.000      0.000 
     136      0.000      0.000      0.180      0.000 
     137      0.000      0.000      0.000      0.000 
     138      0.000      5.124      0.000      0.000 
     139      0.000      0.000      0.300      0.000 
     140      0.000      0.000      0.300      0.000 
     141      0.000      0.000      0.000      0.000 
     142      0.000      0.000      0.000      0.000 
     143      0.000      0.000      0.180      0.000 
     144      0.000      0.000      0.180      0.000 
     145      0.000      0.000      0.468      0.000 
     146      0.000      0.000      0.000      0.000 
     147      0.000      0.000      0.000      0.000 
     148      0.000      0.000      0.180      0.000 
     149      0.000      0.000      0.000      0.000 
     150      0.000      0.000      0.000      0.000 
     151      0.000      0.000      0.000      0.000 
     152      0.000      0.000      0.180      0.000 
     153      0.000      0.000      0.180      0.000 
     154      0.000      0.000      0.000      0.000 
     155      0.000      0.000      0.000      0.000 
     156      0.000      0.000      0.000      0.000 
     157      0.000      0.000      0.132      0.000 
     158      0.000      0.000      0.000      0.000 
     159      0.000      0.000      0.000      0.000 
     160      0.000      0.000      0.000      0.000 
     161      0.000      0.000      0.180      0.000 
     162      0.000      0.000      0.000      0.000 
     163      0.000      0.000      0.000      0.000 
     164      0.000      0.000      0.450      0.000 
     165      0.000      0.000      0.000      0.000 
     166      0.000      0.000      0.000      0.000 
     167      0.000      0.000      0.000      0.000 
     168      0.000      0.000      0.000      0.000 
     169      0.000      0.000      0.000      0.000 
     170      0.000      0.000      0.000      0.000 
     171      0.000      0.000      0.000      0.000 
     172      0.000      0.000      0.000      0.000 
     173      0.000      0.000      0.000      0.000 
     174      0.000      0.000      0.000      0.000 
     175      0.000      0.000      0.180      0.000 
     176      0.000      0.000      0.180      0.000 
     177      0.000      0.000      0.000      0.000 
     178      0.000      0.000      0.000      0.000 
     179      0.000      0.000      0.000      0.000 
     180      0.000      0.000      0.000      0.000 
     181      0.000      0.000      0.000      0.000 
     182      0.000      0.000      0.000      0.000 
     183      0.000      0.000      0.000      0.000 
     184      0.000      0.000      0.000      0.000 
     185      0.000      0.000      0.000      0.000 
     186      0.000      0.000      0.000      0.000 
     187      0.000      0.000      0.000      0.000 
     188      0.000      0.000      0.000      0.000 
     189      0.000      0.000      0.000      0.000 
     190      0.000      0.000      0.000      0.000 
     191      0.000      0.000      0.000      0.000 
     192      0.000      0.000      0.000      0.000 
     193      0.000      0.000      0.000      0.000 
     194      0.000      0.000      0.000      0.000 
     195      0.000      0.000      0.000      0.000 
     196      0.000      0.000      0.000      0.000 
     197      0.000      0.000      0.300      0.000 
     198      0.000      0.000      0.000      0.000 
     199      0.000      0.000      0.300      0.000 
     200      0.000      0.000      0.000      0.000 
     201      0.000      0.000      0.180      0.000 
     202      0.000      0.000      0.000      0.000 
     203      0.000      0.000      0.000      0.000 
     204      0.000      0.000      0.180      0.000 
     205      0.000      0.000      0.180      0.000 
     206      0.000      0.000      0.000      0.000 
     207      0.000      0.000      0.000      0.000 
     208      0.000      0.000      0.180      0.000 
     209      0.000      0.000      0.000      0.000 
     210      0.000      0.000      0.000      0.000 
     211      0.000      0.000      0.180      0.000 
     212      0.000      0.000      0.450      0.000 
     213      0.000      0.000      0.300      0.000 
     214      0.000      0.000      0.000      0.000 
     215      0.000      0.000      0.000      0.000 
     216      0.000      0.000      0.000      0.000 
     217      0.000      0.000      0.000      0.000 
     218      0.000      0.000      0.180      0.000 
     219      0.000      0.000      0.000      0.000 
     220      0.000      0.000      0.180      0.000 
     221      0.000      0.000      0.000      0.000 
     222      0.000      0.000      0.000      0.000 
     223      0.000      0.000      0.000      0.000 
     224      0.000      5.500      0.000      0.000 
     225      0.000      0.000      0.180      0.000 
     226      0.000      0.000      0.000      0.000 
     227      0.000      0.000      0.180      0.000 
     228      0.000      0.000      0.180      0.000 
     229      0.000      0.000      0.000      0.000 
     230      0.000      0.000      0.000      0.000 
     231      0.000      0.000      0.450      0.000 
     232      0.000      0.000      0.180      0.000 
     233      0.000      0.000      0.000      0.000 
     234      0.000      0.000      0.000      0.000 
     235      0.000      0.000      0.000      0.000 
     236      0.000      0.000      0.300      0.000 
     237      0.000      0.000      0.000      0.000 
     238      0.000      0.000      0.000      0.000 
     239      0.000      0.000      0.468      0.000 
     240      0.000      0.000      0.000      0.000 
     241      0.000      0.000      0.000      0.000 
     242      0.000      0.000      0.000      0.000 
     243      0.000      0.000      0.300      0.000 
     244      0.000      0.000      0.000      0.000 
     245      0.000      0.000      0.000      0.000 
     246      0.000      0.000      0.000      0.000 
     247      0.000      0.000      0.000      0.000 
     248      0.000      0.000      0.180      0.000 
     249      0.000      0.000      0.180      0.000 
     250      0.000      0.000      0.000      0.000 
     251      0.000      0.000      0.000      0.000 
     252      0.000      0.000      0.000      0.000 
     253      0.000      0.000      0.000      0.000 
     254      0.000      0.000      0.000      0.000 
     255      0.000      0.000      0.000      0.000 
     256      0.000      0.000      0.000      0.000 
     257      0.000      0.000      0.000      0.000 
     258      0.000      0.000      0.000      0.000 
     259      0.000      0.000      0.000      0.000 
     260      0.000      0.000      0.000      0.000 
     261      0.000      0.000      0.000      0.000 
     262      0.000      0.000      0.000      0.000 
     263      0.000      0.000      0.000      0.000 
     264      0.000      0.000      0.000      0.000 
     265      0.000      0.000      0.000      0.000 
     266      0.000      0.000      0.000      0.000 
     267      0.000      0.000     -0.100      0.000 