LAMMPS data file Created by LigParGen - (Written by Leela S. Dodda)

     126 atoms
     129 bonds
     232 angles
     335 dihedrals
      76 impropers
 
     126 atom types
     129 bond types
     232 angle types
     335 dihedral types
      76 improper types
 
   -6.238950    43.761050 xlo xhi
   -4.676490    45.323510 ylo yhi
  -10.734750    39.265250 zlo zhi

Masses

       1      1.008  
       2     12.011  
       3     12.011  
       4     12.011  
       5      1.008  
       6     12.011  
       7     12.011  
       8     12.011  
       9      1.008  
      10     12.011  
      11      1.008  
      12     12.011  
      13     12.011  
      14      1.008  
      15      1.008  
      16     12.011  
      17      1.008  
      18      1.008  
      19     12.011  
      20     12.011  
      21      1.008  
      22     12.011  
      23      1.008  
      24      1.008  
      25     12.011  
      26     12.011  
      27     12.011  
      28     12.011  
      29      1.008  
      30     12.011  
      31      1.008  
      32      1.008  
      33     12.011  
      34     12.011  
      35     12.011  
      36     12.011  
      37      1.008  
      38      1.008  
      39     12.011  
      40      1.008  
      41     12.011  
      42      1.008  
      43      1.008  
      44      1.008  
      45     12.011  
      46     12.011  
      47      1.008  
      48     12.011  
      49      1.008  
      50     12.011  
      51      1.008  
      52     12.011  
      53      1.008  
      54      1.008  
      55      1.008  
      56     12.011  
      57      1.008  
      58      1.008  
      59      1.008  
      60     12.011  
      61      1.008  
      62     12.011  
      63      1.008  
      64     12.011  
      65      1.008  
      66      1.008  
      67     12.011  
      68      1.008  
      69      1.008  
      70     12.011  
      71     12.011  
      72     12.011  
      73     12.011  
      74      1.008  
      75      1.008  
      76      1.008  
      77      1.008  
      78      1.008  
      79     15.999  
      80     15.999  
      81     12.011  
      82     12.011  
      83     12.011  
      84     12.011  
      85      1.008  
      86      1.008  
      87      1.008  
      88      1.008  
      89      1.008  
      90     15.999  
      91     15.999  
      92     12.011  
      93     12.011  
      94     12.011  
      95     12.011  
      96     12.011  
      97      1.008  
      98      1.008  
      99      1.008  
     100      1.008  
     101      1.008  
     102     15.999  
     103     15.999  
     104     12.011  
     105     12.011  
     106      1.008  
     107     12.011  
     108      1.008  
     109      1.008  
     110      1.008  
     111     15.999  
     112     15.999  
     113      1.008  
     114      1.008  
     115      1.008  
     116     12.011  
     117      1.008  
     118      1.008  
     119      1.008  
     120      1.008  
     121      1.008  
     122      1.008  
     123     12.011  
     124      1.008  
     125      1.008  
     126      1.008  

Pair Coeffs 

       1      0.030  2.4200000 
       2      0.070  3.5500000 
       3      0.070  3.5500000 
       4      0.070  3.5500000 
       5      0.030  2.4200000 
       6      0.070  3.5500000 
       7      0.070  3.5500000 
       8      0.066  3.5000000 
       9      0.030  2.4200000 
      10      0.070  3.5500000 
      11      0.030  2.4200000 
      12      0.066  3.5000000 
      13      0.066  3.5000000 
      14      0.030  2.5000000 
      15      0.030  2.4200000 
      16      0.066  3.5000000 
      17      0.030  2.5000000 
      18      0.030  2.5000000 
      19      0.066  3.5000000 
      20      0.070  3.5500000 
      21      0.030  2.5000000 
      22      0.066  3.5000000 
      23      0.030  2.5000000 
      24      0.030  2.5000000 
      25      0.070  3.5500000 
      26      0.070  3.5500000 
      27      0.066  3.5000000 
      28      0.070  3.5500000 
      29      0.030  2.5000000 
      30      0.066  3.5000000 
      31      0.030  2.5000000 
      32      0.030  2.5000000 
      33      0.070  3.5500000 
      34      0.070  3.5500000 
      35      0.066  3.5000000 
      36      0.070  3.5500000 
      37      0.030  2.5000000 
      38      0.030  2.4200000 
      39      0.070  3.5500000 
      40      0.030  2.4200000 
      41      0.070  3.5500000 
      42      0.030  2.5000000 
      43      0.030  2.5000000 
      44      0.030  2.5000000 
      45      0.070  3.5500000 
      46      0.070  3.5500000 
      47      0.030  2.4200000 
      48      0.070  3.5500000 
      49      0.030  2.4200000 
      50      0.070  3.5500000 
      51      0.030  2.4200000 
      52      0.070  3.5500000 
      53      0.030  2.4200000 
      54      0.030  2.4200000 
      55      0.030  2.4200000 
      56      0.070  3.5500000 
      57      0.030  2.4200000 
      58      0.030  2.4200000 
      59      0.030  2.4200000 
      60      0.070  3.5500000 
      61      0.030  2.4200000 
      62      0.070  3.5500000 
      63      0.030  2.4200000 
      64      0.070  3.5500000 
      65      0.030  2.4200000 
      66      0.030  2.4200000 
      67      0.066  3.5000000 
      68      0.030  2.5000000 
      69      0.030  2.5000000 
      70      0.066  3.5000000 
      71      0.066  3.5000000 
      72      0.070  3.5500000 
      73      0.066  3.5000000 
      74      0.030  2.5000000 
      75      0.030  2.5000000 
      76      0.030  2.5000000 
      77      0.030  2.5000000 
      78      0.030  2.5000000 
      79      0.140  2.9000000 
      80      0.210  2.9600000 
      81      0.066  3.5000000 
      82      0.066  3.5000000 
      83      0.070  3.5500000 
      84      0.066  3.5000000 
      85      0.030  2.5000000 
      86      0.030  2.5000000 
      87      0.030  2.5000000 
      88      0.030  2.5000000 
      89      0.030  2.5000000 
      90      0.140  2.9000000 
      91      0.210  2.9600000 
      92      0.066  3.5000000 
      93      0.066  3.5000000 
      94      0.070  3.5500000 
      95      0.066  3.5000000 
      96      0.066  3.5000000 
      97      0.030  2.5000000 
      98      0.030  2.5000000 
      99      0.030  2.5000000 
     100      0.030  2.5000000 
     101      0.030  2.5000000 
     102      0.140  2.9000000 
     103      0.210  2.9600000 
     104      0.066  3.5000000 
     105      0.070  3.5500000 
     106      0.030  2.5000000 
     107      0.066  3.5000000 
     108      0.030  2.5000000 
     109      0.030  2.5000000 
     110      0.030  2.5000000 
     111      0.140  2.9000000 
     112      0.210  2.9600000 
     113      0.030  2.5000000 
     114      0.030  2.5000000 
     115      0.030  2.5000000 
     116      0.066  3.5000000 
     117      0.030  2.5000000 
     118      0.030  2.5000000 
     119      0.030  2.5000000 
     120      0.030  2.5000000 
     121      0.030  2.5000000 
     122      0.030  2.5000000 
     123      0.066  3.5000000 
     124      0.030  2.5000000 
     125      0.030  2.5000000 
     126      0.030  2.5000000 

Bond Coeffs 

       1   367.0000     1.0800 
       2   469.0000     1.4000 
       3   469.0000     1.4000 
       4   367.0000     1.0800 
       5   469.0000     1.4000 
       6   469.0000     1.4000 
       7   317.0000     1.5100 
       8   367.0000     1.0800 
       9   469.0000     1.4000 
      10   367.0000     1.0800 
      11   268.0000     1.5290 
      12   268.0000     1.5290 
      13   340.0000     1.0900 
      14   367.0000     1.0800 
      15   268.0000     1.5290 
      16   340.0000     1.0900 
      17   340.0000     1.0900 
      18   268.0000     1.5290 
      19   317.0000     1.5100 
      20   340.0000     1.0900 
      21   268.0000     1.5290 
      22   340.0000     1.0900 
      23   340.0000     1.0900 
      24   469.0000     1.4000 
      25   469.0000     1.4000 
      26   268.0000     1.5290 
      27   317.0000     1.5100 
      28   340.0000     1.0900 
      29   268.0000     1.5290 
      30   340.0000     1.0900 
      31   340.0000     1.0900 
      32   469.0000     1.4000 
      33   469.0000     1.4000 
      34   268.0000     1.5290 
      35   317.0000     1.5100 
      36   340.0000     1.0900 
      37   367.0000     1.0800 
      38   469.0000     1.4000 
      39   367.0000     1.0800 
      40   469.0000     1.4000 
      41   340.0000     1.0900 
      42   340.0000     1.0900 
      43   340.0000     1.0900 
      44   469.0000     1.4000 
      45   469.0000     1.4000 
      46   367.0000     1.0800 
      47   469.0000     1.4000 
      48   367.0000     1.0800 
      49   469.0000     1.4000 
      50   367.0000     1.0800 
      51   469.0000     1.4000 
      52   367.0000     1.0800 
      53   367.0000     1.0800 
      54   367.0000     1.0800 
      55   469.0000     1.4000 
      56   367.0000     1.0800 
      57   367.0000     1.0800 
      58   367.0000     1.0800 
      59   469.0000     1.4000 
      60   367.0000     1.0800 
      61   469.0000     1.4000 
      62   367.0000     1.0800 
      63   469.0000     1.4000 
      64   367.0000     1.0800 
      65   367.0000     1.0800 
      66   268.0000     1.5290 
      67   340.0000     1.0900 
      68   340.0000     1.0900 
      69   268.0000     1.5290 
      70   268.0000     1.5290 
      71   317.0000     1.5220 
      72   268.0000     1.5290 
      73   340.0000     1.0900 
      74   340.0000     1.0900 
      75   340.0000     1.0900 
      76   340.0000     1.0900 
      77   340.0000     1.0900 
      78   214.0000     1.3270 
      79   570.0000     1.2290 
      80   268.0000     1.5290 
      81   268.0000     1.5290 
      82   317.0000     1.5220 
      83   268.0000     1.5290 
      84   340.0000     1.0900 
      85   340.0000     1.0900 
      86   340.0000     1.0900 
      87   340.0000     1.0900 
      88   340.0000     1.0900 
      89   214.0000     1.3270 
      90   570.0000     1.2290 
      91   268.0000     1.5290 
      92   268.0000     1.5290 
      93   317.0000     1.5220 
      94   320.0000     1.4100 
      95   268.0000     1.5290 
      96   340.0000     1.0900 
      97   340.0000     1.0900 
      98   340.0000     1.0900 
      99   340.0000     1.0900 
     100   340.0000     1.0900 
     101   214.0000     1.3270 
     102   570.0000     1.2290 
     103   268.0000     1.5290 
     104   317.0000     1.5220 
     105   340.0000     1.0900 
     106   320.0000     1.4100 
     107   340.0000     1.0900 
     108   340.0000     1.0900 
     109   340.0000     1.0900 
     110   214.0000     1.3270 
     111   570.0000     1.2290 
     112   340.0000     1.0900 
     113   340.0000     1.0900 
     114   340.0000     1.0900 
     115   320.0000     1.4100 
     116   340.0000     1.0900 
     117   340.0000     1.0900 
     118   340.0000     1.0900 
     119   340.0000     1.0900 
     120   340.0000     1.0900 
     121   340.0000     1.0900 
     122   320.0000     1.4100 
     123   340.0000     1.0900 
     124   340.0000     1.0900 
     125   340.0000     1.0900 
     126   469.0000     1.4000 
     127   469.0000     1.4000 
     128   469.0000     1.4000 
     129   469.0000     1.4000 

Angle Coeffs 

       1     35.000    120.000
       2     35.000    120.000
       3     35.000    120.000
       4     63.000    120.000
       5     63.000    120.000
       6     70.000    120.000
       7     35.000    120.000
       8     63.000    120.000
       9     35.000    120.000
      10     63.000    114.000
      11     63.000    114.000
      12     35.000    109.500
      13     35.000    120.000
      14     58.350    112.700
      15     37.500    110.700
      16     37.500    110.700
      17     58.350    112.700
      18     63.000    114.000
      19     37.500    110.700
      20     58.350    112.700
      21     37.500    110.700
      22     37.500    110.700
      23     70.000    120.000
      24     70.000    120.000
      25     58.350    112.700
      26     63.000    114.000
      27     37.500    110.700
      28     58.350    112.700
      29     37.500    110.700
      30     37.500    110.700
      31     70.000    120.000
      32     70.000    120.000
      33     58.350    112.700
      34     63.000    114.000
      35     37.500    110.700
      36     35.000    120.000
      37     63.000    120.000
      38     35.000    120.000
      39     63.000    120.000
      40     37.500    110.700
      41     37.500    110.700
      42     37.500    110.700
      43     70.000    120.000
      44     70.000    120.000
      45     35.000    120.000
      46     63.000    120.000
      47     35.000    120.000
      48     63.000    120.000
      49     35.000    120.000
      50     63.000    120.000
      51     35.000    120.000
      52     35.000    120.000
      53     35.000    120.000
      54     63.000    120.000
      55     35.000    120.000
      56     35.000    120.000
      57     35.000    120.000
      58     63.000    120.000
      59     35.000    120.000
      60     63.000    120.000
      61     35.000    120.000
      62     63.000    120.000
      63     35.000    120.000
      64     35.000    120.000
      65     58.350    112.700
      66     37.500    110.700
      67     37.500    110.700
      68     58.350    112.700
      69     58.350    112.700
      70     63.000    111.100
      71     58.350    112.700
      72     37.500    110.700
      73     37.500    110.700
      74     37.500    110.700
      75     37.500    110.700
      76     37.500    110.700
      77     81.000    111.400
      78     80.000    120.400
      79     58.350    112.700
      80     58.350    112.700
      81     63.000    111.100
      82     58.350    112.700
      83     37.500    110.700
      84     37.500    110.700
      85     37.500    110.700
      86     37.500    110.700
      87     37.500    110.700
      88     81.000    111.400
      89     80.000    120.400
      90     58.350    112.700
      91     58.350    112.700
      92     63.000    111.100
      93     83.000    116.900
      94     58.350    112.700
      95     37.500    110.700
      96     37.500    110.700
      97     37.500    110.700
      98     37.500    110.700
      99     37.500    110.700
     100     81.000    111.400
     101     80.000    120.400
     102     58.350    112.700
     103     63.000    111.100
     104     37.500    110.700
     105     83.000    116.900
     106     37.500    110.700
     107     37.500    110.700
     108     37.500    110.700
     109     81.000    111.400
     110     80.000    120.400
     111     35.000    109.500
     112     35.000    109.500
     113     35.000    109.500
     114     83.000    116.900
     115     35.000    109.500
     116     35.000    109.500
     117     35.000    109.500
     118     35.000    109.500
     119     35.000    109.500
     120     35.000    109.500
     121     83.000    116.900
     122     35.000    109.500
     123     35.000    109.500
     124     35.000    109.500
     125     63.000    111.100
     126     70.000    120.000
     127     37.500    110.700
     128     35.000    120.000
     129     63.000    114.000
     130     63.000    120.000
     131     63.000    114.000
     132     37.500    110.700
     133     63.000    120.000
     134     37.500    110.700
     135     63.000    120.000
     136     33.000    107.800
     137     63.000    120.000
     138     33.000    107.800
     139     63.000    111.100
     140     83.000    123.400
     141     35.000    120.000
     142     33.000    107.800
     143     63.000    111.100
     144     37.500    110.700
     145     35.000    120.000
     146     35.000    120.000
     147     37.500    110.700
     148     63.000    111.100
     149     35.000    120.000
     150     83.000    123.400
     151     35.000    120.000
     152     63.000    120.000
     153     35.000    109.500
     154     33.000    107.800
     155     63.000    120.000
     156     63.000    120.000
     157     37.500    110.700
     158     33.000    107.800
     159     33.000    107.800
     160     37.500    110.700
     161     37.500    110.700
     162     33.000    107.800
     163     37.500    110.700
     164     35.000    120.000
     165     58.350    112.700
     166     33.000    107.800
     167     33.000    107.800
     168     35.000    120.000
     169     58.350    112.700
     170     37.500    110.700
     171     37.500    110.700
     172     35.000    120.000
     173     33.000    107.800
     174     35.000    120.000
     175     35.000    120.000
     176     33.000    107.800
     177     33.000    107.800
     178     37.500    110.700
     179     33.000    107.800
     180     37.500    110.700
     181     33.000    107.800
     182     33.000    107.800
     183     37.500    110.700
     184     33.000    107.800
     185     33.000    107.800
     186     83.000    123.400
     187     35.000    120.000
     188     35.000    109.500
     189     35.000    120.000
     190     33.000    107.800
     191     37.500    110.700
     192     33.000    107.800
     193     33.000    107.800
     194     63.000    120.000
     195     35.000    120.000
     196     35.000    109.500
     197     33.000    107.800
     198     33.000    107.800
     199     37.500    110.700
     200     33.000    107.800
     201     35.000    120.000
     202     37.500    110.700
     203     37.500    110.700
     204     63.000    114.000
     205     33.000    107.800
     206     37.500    110.700
     207     35.000    120.000
     208     33.000    107.800
     209     33.000    107.800
     210     63.000    120.000
     211     35.000    120.000
     212     33.000    107.800
     213     35.000    109.500
     214     33.000    107.800
     215     63.000    111.100
     216     63.000    111.100
     217     37.500    110.700
     218     33.000    107.800
     219     33.000    107.800
     220     33.000    107.800
     221     35.000    120.000
     222     63.000    120.000
     223     33.000    107.800
     224     83.000    123.400
     225     33.000    107.800
     226     33.000    107.800
     227     63.000    120.000
     228     35.000    120.000
     229     63.000    120.000
     230     58.350    112.700
     231     63.000    111.100
     232     58.350    112.700

Dihedral Coeffs  

       1      0.000      7.250      0.000      0.000 
       2      0.000      7.250      0.000      0.000 
       3      0.000      7.250      0.000      0.000 
       4      0.000      0.000      0.000      0.000 
       5      1.300     -0.200      0.200      0.000 
       6      1.300     -0.200      0.200      0.000 
       7      1.300     -0.200      0.200      0.000 
       8      0.000      0.000      0.000      0.000 
       9      1.300     -0.200      0.200      0.000 
      10      1.300     -0.200      0.200      0.000 
      11      0.000      0.000      0.000      0.000 
      12      1.300     -0.200      0.200      0.000 
      13      0.000      7.250      0.000      0.000 
      14      0.000      7.250      0.000      0.000 
      15      0.000      0.000      0.300      0.000 
      16      0.000      0.000      0.000      0.000 
      17      0.000      7.250      0.000      0.000 
      18      0.000      7.250      0.000      0.000 
      19      0.000      7.250      0.000      0.000 
      20      0.000      7.250      0.000      0.000 
      21      0.000      7.250      0.000      0.000 
      22      0.000      7.250      0.000      0.000 
      23      0.000      7.250      0.000      0.000 
      24      1.300     -0.200      0.200      0.000 
      25      1.300     -0.200      0.200      0.000 
      26      1.300     -0.200      0.200      0.000 
      27      0.000      0.000      0.300      0.000 
      28      0.000      0.000     -0.553      0.000 
      29      1.300     -0.200      0.200      0.000 
      30      1.300     -0.200      0.200      0.000 
      31      0.000      0.000      0.300      0.000 
      32      0.000      0.000     -0.553      0.000 
      33      1.300     -0.200      0.200      0.000 
      34      4.669      5.124      0.000      0.000 
      35      1.300     -0.200      0.200      0.000 
      36      0.000      0.000      0.300      0.000 
      37      0.000      0.000     -0.553      0.000 
      38      1.300     -0.200      0.200      0.000 
      39      4.669      5.124      0.000      0.000 
      40      0.000      0.000      0.300      0.000 
      41      0.000      0.000     -0.553      0.000 
      42      0.000      0.000      0.198      0.000 
      43      4.669      5.124      0.000      0.000 
      44      0.000      0.000      0.198      0.000 
      45      0.000      0.000      0.198      0.000 
      46      4.669      5.124      0.000      0.000 
      47      0.000      0.000      0.198      0.000 
      48      0.000      7.250      0.000      0.000 
      49      0.000      0.000     -0.100      0.000 
      50      0.000      7.250      0.000      0.000 
      51      0.000      0.000      0.198      0.000 
      52      0.000      0.000      0.300      0.000 
      53      0.000      0.000      0.000      0.000 
      54      0.000      0.000      0.300      0.000 
      55      0.000      0.000      0.000      0.000 
      56      0.000      0.000      0.000      0.000 
      57      0.000      7.250      0.000      0.000 
      58      0.000      0.000      0.462      0.000 
      59      0.000      0.000     -0.100      0.000 
      60      0.000      0.000      0.462      0.000 
      61      0.000      7.250      0.000      0.000 
      62      0.000      7.250      0.000      0.000 
      63      0.000      7.250      0.000      0.000 
      64      0.000      7.250      0.000      0.000 
      65      0.000      0.000      0.000      0.000 
      66      0.000      0.000      0.300      0.000 
      67      0.000      7.250      0.000      0.000 
      68      0.000      0.000      0.198      0.000 
      69     -2.060     -0.313      0.315      0.000 
      70      0.000      7.250      0.000      0.000 
      71      0.000      0.000      0.300      0.000 
      72      0.000      7.250      0.000      0.000 
      73      0.000      0.000      0.000      0.000 
      74      0.000      0.000      0.300      0.000 
      75      0.000      0.000      0.300      0.000 
      76      0.000      0.000      0.300      0.000 
      77      0.000      0.000     -0.100      0.000 
      78      0.000      0.000     -0.100      0.000 
      79      0.000      0.000     -0.553      0.000 
      80      0.000      0.000      0.300      0.000 
      81      0.000      0.000      0.300      0.000 
      82      0.000      0.000      0.300      0.000 
      83      0.000      7.250      0.000      0.000 
      84      0.000      0.000     -0.100      0.000 
      85      0.000      0.000      0.300      0.000 
      86      0.000      7.250      0.000      0.000 
      87      0.000      7.250      0.000      0.000 
      88      0.000      0.000      0.300      0.000 
      89      0.000      7.250      0.000      0.000 
      90      0.000      5.124      0.000      0.000 
      91      0.000      0.000      0.000      0.000 
      92      0.000      0.000     -0.100      0.000 
      93      0.000      0.000      0.300      0.000 
      94      0.000      0.000      0.000      0.000 
      95      0.000      0.000      0.300      0.000 
      96      0.000      0.000      0.300      0.000 
      97      0.000      0.000      0.300      0.000 
      98      0.000      0.000      0.300      0.000 
      99      0.000      0.000      0.300      0.000 
     100      0.000      0.000     -0.100      0.000 
     101      0.000      7.250      0.000      0.000 
     102      0.000      0.000     -0.100      0.000 
     103      0.000      0.000      0.300      0.000 
     104      0.000      7.250      0.000      0.000 
     105      0.000      7.250      0.000      0.000 
     106      0.000      7.250      0.000      0.000 
     107      0.000      0.000      0.300      0.000 
     108      1.300     -0.200      0.200      0.000 
     109      0.000      0.000     -0.100      0.000 
     110      0.000      7.250      0.000      0.000 
     111      0.000      0.000      0.300      0.000 
     112      0.000      0.000     -0.100      0.000 
     113      0.000      0.000     -0.100      0.000 
     114      0.000      7.250      0.000      0.000 
     115      0.000      0.000      0.000      0.000 
     116      1.300     -0.200      0.200      0.000 
     117      0.000      0.000      0.462      0.000 
     118      0.000      7.250      0.000      0.000 
     119      0.000      0.000      0.300      0.000 
     120      0.000      7.250      0.000      0.000 
     121      0.000      0.000      0.300      0.000 
     122      0.000      0.000     -0.100      0.000 
     123      0.000      0.000      0.300      0.000 
     124      0.000      7.250      0.000      0.000 
     125      0.000      0.000     -0.553      0.000 
     126      1.300     -0.200      0.200      0.000 
     127      0.000      7.250      0.000      0.000 
     128      0.000      7.250      0.000      0.000 
     129      0.000      0.000     -0.100      0.000 
     130      0.000      7.250      0.000      0.000 
     131      0.000      0.000      0.462      0.000 
     132      0.000      0.000      0.300      0.000 
     133      0.000      0.000      0.000      0.000 
     134      0.000      0.000      0.300      0.000 
     135      0.000      7.250      0.000      0.000 
     136      0.000      7.250      0.000      0.000 
     137      0.000      7.250      0.000      0.000 
     138      0.000      0.000      0.000      0.000 
     139      0.000      0.000      0.300      0.000 
     140      0.000      0.000      0.300      0.000 
     141      0.000      7.250      0.000      0.000 
     142      0.000      0.000      0.300      0.000 
     143      0.000      0.000      0.300      0.000 
     144      0.000      0.000      0.198      0.000 
     145      0.000      0.000      0.462      0.000 
     146      0.000      0.000      0.300      0.000 
     147      0.000      7.250      0.000      0.000 
     148      0.000      0.000     -0.100      0.000 
     149      0.000      0.000      0.300      0.000 
     150      0.000      0.000      0.300      0.000 
     151      0.000      7.250      0.000      0.000 
     152      0.000      7.250      0.000      0.000 
     153      0.000      0.000     -0.100      0.000 
     154      0.000      5.124      0.000      0.000 
     155      0.000      0.000      0.000      0.000 
     156      0.000      7.250      0.000      0.000 
     157      0.000      0.000      0.300      0.000 
     158      0.000      7.250      0.000      0.000 
     159      0.000      0.000      0.300      0.000 
     160      0.000      0.000      0.300      0.000 
     161      0.000      0.000      0.198      0.000 
     162      0.000      0.000      0.300      0.000 
     163      0.000      7.250      0.000      0.000 
     164      0.000      7.250      0.000      0.000 
     165      0.000      0.000      0.000      0.000 
     166      0.000      7.250      0.000      0.000 
     167      0.000      0.000     -0.100      0.000 
     168      0.000      7.250      0.000      0.000 
     169      0.000      7.250      0.000      0.000 
     170      0.000      0.000      0.000      0.000 
     171      0.000      0.000     -0.100      0.000 
     172      0.000      7.250      0.000      0.000 
     173      1.300     -0.200      0.200      0.000 
     174      0.000      7.250      0.000      0.000 
     175      0.000      7.250      0.000      0.000 
     176      0.000      0.000      0.000      0.000 
     177     -2.060     -0.313      0.315      0.000 
     178      1.300     -0.200      0.200      0.000 
     179      0.000      0.000      0.300      0.000 
     180      0.000      0.000      0.300      0.000 
     181      0.000      7.250      0.000      0.000 
     182      0.000      0.000      0.462      0.000 
     183      0.000      7.250      0.000      0.000 
     184      0.000      0.000     -0.553      0.000 
     185      0.000      0.000      0.300      0.000 
     186      0.000      0.000     -0.100      0.000 
     187      0.000      0.000      0.300      0.000 
     188      0.000      7.250      0.000      0.000 
     189      0.000      0.000     -0.553      0.000 
     190      0.000      0.000      0.000      0.000 
     191      0.000      7.250      0.000      0.000 
     192      0.000      7.250      0.000      0.000 
     193      0.000      0.000      0.300      0.000 
     194      0.000      0.000      0.300      0.000 
     195      0.000      0.000      0.000      0.000 
     196      0.000      7.250      0.000      0.000 
     197      0.000      7.250      0.000      0.000 
     198      0.000      0.000      0.300      0.000 
     199      0.000      0.000      0.300      0.000 
     200      1.300     -0.200      0.200      0.000 
     201      0.000      0.000      0.300      0.000 
     202      1.300     -0.200      0.200      0.000 
     203     -2.060     -0.313      0.315      0.000 
     204      0.000      7.250      0.000      0.000 
     205      0.000      7.250      0.000      0.000 
     206     -2.060     -0.313      0.315      0.000 
     207      0.000      0.000      0.300      0.000 
     208      0.000      0.000      0.000      0.000 
     209      0.000      7.250      0.000      0.000 
     210      0.000      0.000      0.462      0.000 
     211      1.300     -0.200      0.200      0.000 