LAMMPS data file Created by LigParGen - (Written by Leela S. Dodda)

      77 atoms
      76 bonds
     140 angles
     181 dihedrals
      45 impropers
 
      77 atom types
      76 bond types
     140 angle types
     181 dihedral types
      45 improper types
 
   -6.097990    43.902010 xlo xhi
   -3.483630    46.516370 ylo yhi
   -3.680770    46.319230 zlo zhi

Masses

       1     15.999  
       2     12.011  
       3     12.011  
       4     15.999  
       5     12.011  
       6     12.011  
       7     12.011  
       8     12.011  
       9     12.011  
      10      1.008  
      11      1.008  
      12     12.011  
      13     12.011  
      14     12.011  
      15     12.011  
      16      1.008  
      17      1.008  
      18      1.008  
      19      1.008  
      20      1.008  
      21     15.999  
      22     15.999  
      23     12.011  
      24     12.011  
      25     12.011  
      26     12.011  
      27      1.008  
      28      1.008  
      29      1.008  
      30      1.008  
      31      1.008  
      32     15.999  
      33     15.999  
      34     12.011  
      35     12.011  
      36     12.011  
      37     12.011  
      38      1.008  
      39      1.008  
      40      1.008  
      41      1.008  
      42      1.008  
      43      1.008  
      44     15.999  
      45     15.999  
      46     12.011  
      47      1.008  
      48      1.008  
      49      1.008  
      50      1.008  
      51      1.008  
      52      1.008  
      53     12.011  
      54      1.008  
      55      1.008  
      56      1.008  
      57     12.011  
      58      1.008  
      59      1.008  
      60     12.011  
      61     12.011  
      62      1.008  
      63      1.008  
      64      1.008  
      65      1.008  
      66     15.999  
      67     15.999  
      68     12.011  
      69      1.008  
      70      1.008  
      71      1.008  
      72      1.008  
      73      1.008  
      74      1.008  
      75      1.008  
      76      1.008  
      77      1.008  

Pair Coeffs 

       1      0.210  2.9600000 
       2      0.070  3.5500000 
       3      0.066  3.5000000 
       4      0.140  2.9000000 
       5      0.066  3.5000000 
       6      0.066  3.5000000 
       7      0.066  3.5000000 
       8      0.066  3.5000000 
       9      0.066  3.5000000 
      10      0.030  2.5000000 
      11      0.030  2.5000000 
      12      0.066  3.5000000 
      13      0.066  3.5000000 
      14      0.070  3.5500000 
      15      0.066  3.5000000 
      16      0.030  2.5000000 
      17      0.030  2.5000000 
      18      0.030  2.5000000 
      19      0.030  2.5000000 
      20      0.030  2.5000000 
      21      0.140  2.9000000 
      22      0.210  2.9600000 
      23      0.066  3.5000000 
      24      0.066  3.5000000 
      25      0.070  3.5500000 
      26      0.066  3.5000000 
      27      0.030  2.5000000 
      28      0.030  2.5000000 
      29      0.030  2.5000000 
      30      0.030  2.5000000 
      31      0.030  2.5000000 
      32      0.140  2.9000000 
      33      0.210  2.9600000 
      34      0.066  3.5000000 
      35      0.066  3.5000000 
      36      0.070  3.5500000 
      37      0.066  3.5000000 
      38      0.030  2.5000000 
      39      0.030  2.5000000 
      40      0.030  2.5000000 
      41      0.030  2.5000000 
      42      0.030  2.5000000 
      43      0.030  2.5000000 
      44      0.140  2.9000000 
      45      0.210  2.9600000 
      46      0.066  3.5000000 
      47      0.030  2.5000000 
      48      0.030  2.5000000 
      49      0.030  2.5000000 
      50      0.030  2.5000000 
      51      0.030  2.5000000 
      52      0.030  2.5000000 
      53      0.066  3.5000000 
      54      0.030  2.5000000 
      55      0.030  2.5000000 
      56      0.030  2.5000000 
      57      0.066  3.5000000 
      58      0.030  2.5000000 
      59      0.030  2.5000000 
      60      0.066  3.5000000 
      61      0.070  3.5500000 
      62      0.030  2.5000000 
      63      0.030  2.5000000 
      64      0.030  2.5000000 
      65      0.030  2.5000000 
      66      0.140  2.9000000 
      67      0.210  2.9600000 
      68      0.066  3.5000000 
      69      0.030  2.5000000 
      70      0.030  2.5000000 
      71      0.030  2.5000000 
      72      0.030  2.5000000 
      73      0.030  2.5000000 
      74      0.030  2.5000000 
      75      0.030  2.5000000 
      76      0.030  2.5000000 
      77      0.030  2.5000000 

Bond Coeffs 

       1   570.0000     1.2290 
       2   317.0000     1.5220 
       3   214.0000     1.3270 
       4   268.0000     1.5290 
       5   268.0000     1.5290 
       6   268.0000     1.5290 
       7   320.0000     1.4100 
       8   268.0000     1.5290 
       9   340.0000     1.0900 
      10   340.0000     1.0900 
      11   268.0000     1.5290 
      12   268.0000     1.5290 
      13   317.0000     1.5220 
      14   268.0000     1.5290 
      15   340.0000     1.0900 
      16   340.0000     1.0900 
      17   340.0000     1.0900 
      18   340.0000     1.0900 
      19   340.0000     1.0900 
      20   214.0000     1.3270 
      21   570.0000     1.2290 
      22   268.0000     1.5290 
      23   268.0000     1.5290 
      24   317.0000     1.5220 
      25   268.0000     1.5290 
      26   340.0000     1.0900 
      27   340.0000     1.0900 
      28   340.0000     1.0900 
      29   340.0000     1.0900 
      30   340.0000     1.0900 
      31   214.0000     1.3270 
      32   570.0000     1.2290 
      33   268.0000     1.5290 
      34   268.0000     1.5290 
      35   317.0000     1.5220 
      36   320.0000     1.4100 
      37   340.0000     1.0900 
      38   340.0000     1.0900 
      39   340.0000     1.0900 
      40   340.0000     1.0900 
      41   340.0000     1.0900 
      42   340.0000     1.0900 
      43   214.0000     1.3270 
      44   570.0000     1.2290 
      45   320.0000     1.4100 
      46   340.0000     1.0900 
      47   340.0000     1.0900 
      48   340.0000     1.0900 
      49   340.0000     1.0900 
      50   340.0000     1.0900 
      51   340.0000     1.0900 
      52   320.0000     1.4100 
      53   340.0000     1.0900 
      54   340.0000     1.0900 
      55   340.0000     1.0900 
      56   268.0000     1.5290 
      57   340.0000     1.0900 
      58   340.0000     1.0900 
      59   268.0000     1.5290 
      60   317.0000     1.5220 
      61   340.0000     1.0900 
      62   340.0000     1.0900 
      63   340.0000     1.0900 
      64   340.0000     1.0900 
      65   214.0000     1.3270 
      66   570.0000     1.2290 
      67   320.0000     1.4100 
      68   340.0000     1.0900 
      69   340.0000     1.0900 
      70   340.0000     1.0900 
      71   340.0000     1.0900 
      72   340.0000     1.0900 
      73   340.0000     1.0900 
      74   340.0000     1.0900 
      75   340.0000     1.0900 
      76   340.0000     1.0900 

Angle Coeffs 

       1     80.000    120.400
       2     83.000    123.400
       3     63.000    111.100
       4     63.000    111.100
       5     63.000    111.100
       6     83.000    116.900
       7     58.350    112.700
       8     37.500    110.700
       9     37.500    110.700
      10     58.350    112.700
      11     58.350    112.700
      12     63.000    111.100
      13     58.350    112.700
      14     37.500    110.700
      15     37.500    110.700
      16     37.500    110.700
      17     37.500    110.700
      18     37.500    110.700
      19     81.000    111.400
      20     80.000    120.400
      21     58.350    112.700
      22     58.350    112.700
      23     63.000    111.100
      24     58.350    112.700
      25     37.500    110.700
      26     37.500    110.700
      27     37.500    110.700
      28     37.500    110.700
      29     37.500    110.700
      30     81.000    111.400
      31     80.000    120.400
      32     58.350    112.700
      33     58.350    112.700
      34     63.000    111.100
      35     83.000    116.900
      36     37.500    110.700
      37     37.500    110.700
      38     37.500    110.700
      39     37.500    110.700
      40     37.500    110.700
      41     37.500    110.700
      42     81.000    111.400
      43     80.000    120.400
      44     83.000    116.900
      45     35.000    109.500
      46     35.000    109.500
      47     35.000    109.500
      48     35.000    109.500
      49     35.000    109.500
      50     35.000    109.500
      51     83.000    116.900
      52     35.000    109.500
      53     35.000    109.500
      54     35.000    109.500
      55     58.350    112.700
      56     37.500    110.700
      57     37.500    110.700
      58     58.350    112.700
      59     63.000    111.100
      60     37.500    110.700
      61     37.500    110.700
      62     37.500    110.700
      63     37.500    110.700
      64     81.000    111.400
      65     80.000    120.400
      66     83.000    116.900
      67     35.000    109.500
      68     35.000    109.500
      69     35.000    109.500
      70     37.500    110.700
      71     37.500    110.700
      72     37.500    110.700
      73     35.000    109.500
      74     35.000    109.500
      75     35.000    109.500
      76     63.000    111.100
      77     33.000    107.800
      78     58.350    112.700
      79     33.000    107.800
      80     37.500    110.700
      81     37.500    110.700
      82     33.000    107.800
      83     58.350    112.700
      84     83.000    123.400
      85     33.000    107.800
      86     33.000    107.800
      87     33.000    107.800
      88     37.500    110.700
      89     33.000    107.800
      90     33.000    107.800
      91     37.500    110.700
      92     63.000    111.100
      93     83.000    123.400
      94     33.000    107.800
      95     63.000    111.100
      96     33.000    107.800
      97     37.500    110.700
      98     33.000    107.800
      99     63.000    111.100
     100     33.000    107.800
     101     33.000    107.800
     102     33.000    107.800
     103     81.000    111.400
     104     33.000    107.800
     105     63.000    111.100
     106     33.000    107.800
     107     33.000    107.800
     108     58.350    112.700
     109     33.000    107.800
     110     33.000    107.800
     111     63.000    111.100
     112     33.000    107.800
     113     83.000    123.400
     114     33.000    107.800
     115     58.350    112.700
     116     33.000    107.800
     117     37.500    110.700
     118     33.000    107.800
     119     33.000    107.800
     120     33.000    107.800
     121     35.000    109.500
     122     83.000    123.400
     123     33.000    107.800
     124     58.350    112.700
     125     33.000    107.800
     126     33.000    107.800
     127     63.000    111.100
     128     37.500    110.700
     129     33.000    107.800
     130     33.000    107.800
     131     33.000    107.800
     132     33.000    107.800
     133     33.000    107.800
     134     33.000    107.800
     135     37.500    110.700
     136     33.000    107.800
     137     58.350    112.700
     138     33.000    107.800
     139     33.000    107.800
     140     37.500    110.700

Dihedral Coeffs  

       1      0.000      0.000      0.000      0.000 
       2      0.000      5.124      0.000      0.000 
       3     -2.060     -0.313      0.315      0.000 
       4      1.300     -0.200      0.200      0.000 
       5      1.300     -0.200      0.200      0.000 
       6      0.000      0.000      0.300      0.000 
       7      0.000      0.000     -0.553      0.000 
       8      1.300     -0.200      0.200      0.000 
       9      1.300     -0.200      0.200      0.000 
      10      0.000      0.000      0.300      0.000 
      11      0.000      0.000     -0.553      0.000 
      12      1.300     -0.200      0.200      0.000 
      13      4.669      5.124      0.000      0.000 
      14      0.000      0.000      0.300      0.000 
      15      0.000      0.000      0.300      0.000 
      16      0.000      0.000     -0.553      0.000 
      17      4.669      5.124      0.000      0.000 
      18      0.000      0.000      0.198      0.000 
      19      0.000      0.000      0.198      0.000 
      20      4.669      5.124      0.000      0.000 
      21      0.000      0.000      0.198      0.000 
      22     -2.060     -0.313      0.315      0.000 
      23      1.300     -0.200      0.200      0.000 
      24      0.000      0.000      0.300      0.000 
      25      0.000      0.000     -0.553      0.000 
      26      4.669      5.124      0.000      0.000 
      27      0.000      0.000      0.198      0.000 
      28      0.000      0.000     -0.100      0.000 
      29      0.000      0.000      0.198      0.000 
      30      0.000      0.000     -0.100      0.000 
      31      0.000      0.000      0.300      0.000 
      32      0.000      0.000      0.300      0.000 
      33      0.000      0.000      0.300      0.000 
      34      0.000      0.000      0.300      0.000 
      35      0.000      0.000      0.300      0.000 
      36      0.000      0.000     -0.100      0.000 
      37      0.000      0.000      0.300      0.000 
      38      0.000      0.000     -0.100      0.000 
      39      0.000      0.000     -0.100      0.000 
      40      0.000      0.000      0.300      0.000 
      41      0.000      0.000      0.000      0.000 
      42      0.000      0.000     -0.553      0.000 
      43      0.000      0.000      0.000      0.000 
      44      0.000      0.000      0.300      0.000 
      45      1.300     -0.200      0.200      0.000 
      46      0.000      0.000     -0.100      0.000 
      47      0.000      0.000      0.300      0.000 
      48      0.000      0.000      0.300      0.000 
      49      0.000      5.124      0.000      0.000 
      50      0.000      0.000      0.300      0.000 
      51      0.000      0.000      0.300      0.000 
      52     -2.060     -0.313      0.315      0.000 
      53      0.000      0.000      0.300      0.000 
      54      0.000      0.000      0.198      0.000 
      55      0.000      0.000      0.300      0.000 
      56      0.000      0.000      0.300      0.000 
      57      0.000      0.000      0.300      0.000 
      58      0.000      0.000      0.300      0.000 
      59      0.000      0.000     -0.100      0.000 
      60      0.000      0.000      0.198      0.000 
      61      0.000      0.000     -0.100      0.000 
      62      0.000      0.000      0.300      0.000 
      63      0.000      0.000      0.198      0.000 
      64      0.000      0.000     -0.553      0.000 
      65      0.000      0.000      0.300      0.000 
      66      0.000      0.000     -0.100      0.000 
      67      0.000      0.000     -0.100      0.000 
      68      1.300     -0.200      0.200      0.000 
      69      0.000      0.000     -0.553      0.000 
      70      0.000      0.000      0.300      0.000 
      71      0.000      0.000      0.300      0.000 
      72      0.000      0.000      0.300      0.000 
      73      0.000      0.000      0.300      0.000 
      74      0.000      0.000     -0.553      0.000 
      75      0.000      0.000      0.000      0.000 
      76      0.000      0.000      0.300      0.000 
      77      0.000      0.000     -0.100      0.000 
      78      0.000      0.000      0.300      0.000 
      79      0.000      0.000      0.300      0.000 
      80      0.000      0.000      0.198      0.000 
      81      0.000      0.000      0.300      0.000 
      82     -2.060     -0.313      0.315      0.000 
      83      0.000      0.000      0.300      0.000 
      84      0.000      0.000     -0.100      0.000 
      85      0.000      0.000      0.300      0.000 
      86      0.000      0.000      0.300      0.000 
      87      0.000      0.000     -0.553      0.000 
      88      0.000      0.000      0.300      0.000 
      89      0.000      0.000     -0.100      0.000 
      90      0.000      0.000      0.300      0.000 
      91      0.000      0.000      0.300      0.000 
      92      0.000      5.124      0.000      0.000 
      93      1.300     -0.200      0.200      0.000 
      94      0.000      0.000      0.000      0.000 
      95      0.000      0.000      0.000      0.000 
      96      0.000      0.000      0.300      0.000 
      97      0.000      0.000      0.300      0.000 
      98      0.000      0.000      0.198      0.000 
      99      0.000      0.000     -0.100      0.000 
     100      1.300     -0.200      0.200      0.000 
     101      0.000      0.000      0.300      0.000 
     102      0.000      0.000     -0.100      0.000 
     103      0.000      0.000      0.000      0.000 
     104      1.300     -0.200      0.200      0.000 
     105      0.000      0.000     -0.553      0.000 
     106      0.000      0.000      0.300      0.000 
     107     -2.060     -0.313      0.315      0.000 
     108      0.000      0.000      0.300      0.000 
     109      0.000      0.000     -0.100      0.000 
     110     -2.060     -0.313      0.315      0.000 
     111      0.000      0.000      0.000      0.000 
     112      0.000      0.000     -0.100      0.000 
     113      0.000      0.000     -0.100      0.000 
     114      0.000      0.000      0.300      0.000 
     115      0.000      0.000     -0.100      0.000 
     116      0.000      0.000     -0.100      0.000 
     117      0.000      0.000      0.300      0.000 
     118      0.000      0.000      0.198      0.000 
     119      0.000      0.000      0.132      0.000 
     120      0.000      0.000     -0.553      0.000 
     121      0.000      0.000      0.000      0.000 
     122      0.000      0.000      0.300      0.000 
     123      0.000      0.000      0.198      0.000 
     124      0.000      0.000     -0.100      0.000 
     125      4.669      5.124      0.000      0.000 
     126      0.000      0.000      0.300      0.000 
     127      0.000      0.000      0.300      0.000 
     128      0.000      0.000     -0.100      0.000 
     129      0.000      0.000     -0.100      0.000 
     130      0.000      0.000     -0.100      0.000 
     131      0.000      0.000     -0.553      0.000 
     132      0.000      0.000      0.300      0.000 
     133      0.000      0.000      0.300      0.000 
     134      0.000      0.000      0.300      0.000 
     135      0.000      0.000     -0.100      0.000 
     136      0.000      0.000      0.300      0.000 
     137      0.000      0.000      0.000      0.000 
     138      0.000      0.000      0.300      0.000 
     139      0.000      0.000      0.300      0.000 
     140      0.000      0.000     -0.100      0.000 
     141      0.000      0.000      0.300      0.000 
     142      0.000      0.000      0.000      0.000 
     143      0.000      0.000      0.300      0.000 
     144      0.000      0.000      0.000      0.000 
     145      0.000      0.000     -0.100      0.000 
     146      1.300     -0.200      0.200      0.000 
     147      0.000      0.000      0.300      0.000 
     148      1.300     -0.200      0.200      0.000 
     149      0.000      5.124      0.000      0.000 
     150      0.000      0.000      0.198      0.000 
     151      0.000      0.000      0.300      0.000 
     152      0.000      0.000      0.300      0.000 
     153      0.000      5.124      0.000      0.000 
     154      0.000      0.000     -0.100      0.000 
     155      0.000      0.000     -0.553      0.000 
     156      0.000      0.000      0.000      0.000 
     157      0.000      0.000      0.300      0.000 
     158      1.300     -0.200      0.200      0.000 
     159      0.000      0.000      0.198      0.000 
     160      1.300     -0.200      0.200      0.000 
     161      0.000      0.000      0.000      0.000 
     162     -2.060     -0.313      0.315      0.000 
     163      0.000      0.000     -0.100      0.000 
     164      0.000      0.000      0.300      0.000 
     165      0.000      0.000      0.300      0.000 
     166      0.000      0.000     -0.553      0.000 
     167      0.000      0.000     -0.100      0.000 
     168      0.000      0.000     -0.100      0.000 
     169      0.000      0.000      0.300      0.000 
     170      0.000      0.000      0.000      0.000 
     171      0.000      0.000     -0.100      0.000 
     172      0.000      0.000     -0.100      0.000 
     173      0.000      0.000     -0.100      0.000 
     174      0.000      0.000      0.300      0.000 
     175      0.000      0.000      0.300      0.000 
     176      0.000      0.000      0.198      0.000 
     177     -2.060     -0.313      0.315      0.000 
     178      0.000      0.000      0.300      0.000 
     179      0.000      0.000      0.300      0.000 
     180      0.000      0.000      0.300      0.000 
     181      0.000      0.000      0.300      0.000 

Improper Coeffs 

       1     10.500      -1       2 
       2      0.000      -1       2 
       3      0.000      -1       2 
       4      0.000      -1       2 
       5      0.000      -1       2 
       6      0.000      -1       2 
       7      0.000      -1       2 
       8      0.000      -1       2 
       9      0.000      -1       2 
      10      0.000      -1       2 
      11      0.000      -1       2 
      12     10.500      -1       2 
      13      0.000      -1       2 
      14      0.000      -1       2 
      15      0.000      -1       2 
      16      0.000      -1       2 
      17      0.000      -1       2 
      18      0.000      -1       2 
      19     10.500      -1       2 
      20      0.000      -1       2 
      21      0.000      -1       2 
      22      0.000      -1       2 
      23      0.000      -1       2 
      24      0.000      -1       2 
      25      0.000      -1       2 
      26     10.500      -1       2 
      27      0.000      -1       2 
      28      0.000      -1       2 
      29      0.000      -1       2 
      30      0.000      -1       2 
      31      0.000      -1       2 
      32      0.000      -1       2 
      33      0.000      -1       2 
      34      0.000      -1       2 
      35      0.000      -1       2 
      36      0.000      -1       2 
      37      0.000      -1       2 
      38      0.000      -1       2 
      39     10.500      -1       2 
      40      0.000      -1       2 
      41      0.000      -1       2 
      42      0.000      -1       2 
      43      0.000      -1       2 
      44      0.000      -1       2 
      45      0.000      -1       2 

Atoms 

     1      1      1 -0.44100000    1.000  1.00000  0.00000
     2      1      2 0.43750000   -0.226  1.00000  0.00000
     3      1      3 -0.01940000   -1.002  1.00000  1.31561
     4      1      4 -0.36420000   -0.947  0.99847 -1.21318
     5      1      5 -0.17000000   -1.969  2.25562  1.33814
     6      1      6 -0.16210000   -1.922 -0.27942  1.34964
     7      1      7 -0.24570000   -0.040  0.98964  2.52165
     8      1      8 -0.04120000   -0.174  0.99695 -2.41300
     9      1      9 -0.01130000   -1.477  3.72653  1.67462
    10      1     10 0.10860000   -2.808  2.04398  2.03733
    11      1     11 0.10860000   -2.467  2.26018  0.34546
    12      1     12 -0.16950000   -2.597  4.72441  1.15436
    13      1     13 -0.23310000   -1.399  3.86807  3.22904
    14      1     14 0.43660000   -0.129  4.00974  1.02090
    15      1     15 -0.02060000   -2.327  6.25659  0.84603
    16      1     16 0.10790000   -3.433  4.65358  1.88616
    17      1     17 0.10790000   -3.048  4.31305  0.22561
    18      1     18 0.09960000   -1.181  4.89759  3.55436
    19      1     19 0.09960000   -0.605  3.25561  3.68354
    20      1     20 0.09960000   -2.361  3.57793  3.70522
    21      1     21 -0.36830000    0.002  3.90963 -0.37893
    22      1     22 -0.43610000    0.831  4.32131  1.71684
    23      1     23 -0.16380000   -3.743  6.94550  0.71378
    24      1     24 -0.24630000   -1.509  6.92643  1.96980
    25      1     25 0.44150000   -1.610  6.36415 -0.49756
    26      1     26 -0.03060000   -3.901  8.51042  0.62172
    27      1     27 0.10920000   -4.378  6.61712  1.56642
    28      1     28 0.10920000   -4.236  6.49078 -0.17517
    29      1     29 0.11170000   -2.070  6.90393  2.92888
    30      1     30 0.11170000   -1.268  7.97458  1.71625
    31      1     31 0.11170000   -0.526  6.44084  2.10078
    32      1     32 -0.36360000   -2.230  5.81337 -1.64011
    33      1     33 -0.44410000   -0.519  6.91877 -0.57941
    34      1     34 -0.24330000   -5.278  8.81169 -0.01771
    35      1     35 -0.22800000   -3.932  9.15114  2.03739
    36      1     36 0.43630000   -2.843  9.16136 -0.25872
    37      1     37 -0.04100000   -1.519  5.93805 -2.87148
    38      1     38 0.09870000   -5.443  9.90833 -0.10588
    39      1     39 0.09870000   -6.098  8.38331  0.59874
    40      1     40 0.09870000   -5.352  8.37437 -1.03665
    41      1     41 0.09910000   -4.706  8.66848  2.67355
    42      1     42 0.09910000   -4.181 10.23263  1.96635
    43      1     43 0.09910000   -2.966  9.08236  2.56635
    44      1     44 -0.37100000   -2.852  8.89563 -1.64376
    45      1     45 -0.43620000   -2.031  9.94100  0.22640
    46      1     46 -0.05490000   -1.946  9.66926 -2.43072
    47      1     47 0.10280000   -0.897  9.46657 -2.12633
    48      1     48 0.10280000   -2.173 10.75338 -2.32858
    49      1     49 0.10280000   -2.063  9.38651 -3.49612
    50      1     50 0.09610000   -0.548  5.40717 -2.81595
    51      1     51 0.09610000   -1.350  7.00471 -3.12233
    52      1     52 0.09610000   -2.123  5.47748 -3.68077
    53      1     53 -0.06000000    1.308  4.19350 -0.89374
    54      1     54 0.10830000    1.298  4.08717 -1.99627
    55      1     55 0.10830000    2.052  3.47908 -0.48193
    56      1     56 0.10830000    1.604  5.23590 -0.64850
    57      1     57 -0.10740000   -1.310 -1.70442  1.52781
    58      1     58 0.10970000   -2.678 -0.15871  2.15652
    59      1     59 0.10970000   -2.521 -0.29515  0.41157
    60      1     60 -0.23020000   -1.149 -2.11683  3.00483
    61      1     61 0.43220000   -0.070 -1.96345  0.70438
    62      1     62 0.12550000   -2.075 -2.40967  1.13345
    63      1     63 0.09950000   -0.878 -3.19231  3.06381
    64      1     64 0.09950000   -2.109 -1.98286  3.54790
    65      1     65 0.09950000   -0.364 -1.54029  3.52612
    66      1     66 -0.37160000   -0.204 -2.07178 -0.69326
    67      1     67 -0.43270000    1.014 -2.12304  1.25296
    68      1     68 -0.05480000    0.970 -2.47673 -1.39918
    69      1     69 0.10310000    1.297 -3.48363 -1.06098
    70      1     70 0.10310000    1.788 -1.73910 -1.24967
    71      1     71 0.10310000    0.737 -2.53077 -2.48260
    72      1     72 0.11190000   -0.607  0.94193  3.47522
    73      1     73 0.11190000    0.624  1.87244  2.51405
    74      1     74 0.11190000    0.650  0.12760  2.47288
    75      1     75 0.09630000   -0.862  0.99452 -3.28329
    76      1     76 0.09630000    0.463  0.09097 -2.46714
    77      1     77 0.09630000    0.458  1.90572 -2.47129

Bonds 

     1      1      2      1
     2      2      3      2
     3      3      4      2
     4      4      5      3
     5      5      6      3
     6      6      7      3
     7      7      8      4
     8      8      9      5
     9      9     10      5
    10     10     11      5
    11     11     12      9
    12     12     13      9
    13     13     14      9
    14     14     15     12
    15     15     16     12
    16     16     17     12
    17     17     18     13
    18     18     19     13
    19     19     20     13
    20     20     21     14
    21     21     22     14
    22     22     23     15
    23     23     24     15
    24     24     25     15
    25     25     26     23
    26     26     27     23
    27     27     28     23
    28     28     29     24
    29     29     30     24
    30     30     31     24
    31     31     32     25
    32     32     33     25
    33     33     34     26
    34     34     35     26
    35     35     36     26
    36     36     37     32
    37     37     38     34
    38     38     39     34
    39     39     40     34
    40     40     41     35
    41     41     42     35
    42     42     43     35
    43     43     44     36
    44     44     45     36
    45     45     46     44
    46     46     47     46
    47     47     48     46
    48     48     49     46
    49     49     50     37
    50     50     51     37
    51     51     52     37
    52     52     53     21
    53     53     54     53
    54     54     55     53
    55     55     56     53
    56     56     57      6
    57     57     58      6
    58     58     59      6
    59     59     60     57
    60     60     61     57
    61     61     62     57
    62     62     63     60
    63     63     64     60
    64     64     65     60
    65     65     66     61
    66     66     67     61
    67     67     68     66
    68     68     69     68
    69     69     70     68
    70     70     71     68
    71     71     72      7
    72     72     73      7
    73     73     74      7
    74     74     75      8
    75     75     76      8
    76     76     77      8

Angles 

     1      1      1      2      3
     2      2      1      2      4
     3      3      2      3      5
     4      4      2      3      6
     5      5      2      3      7
     6      6      2      4      8
     7      7      3      5      9
     8      8      3      5     10
     9      9      3      5     11
    10     10      5      9     12
    11     11      5      9     13
    12     12      5      9     14