LAMMPS data file Generated by mappingff

      3202 atoms
      3401 bonds
      6000 angles
      9591 dihedrals
      1200 impropers

        28 atom types
         5 bond types
         8 angle types
         5 dihedral types
         1 improper types

 -401.998600     9.805900 xlo xhi
   -9.510500    38.177200 ylo yhi
 -133.310000    10.697900 zlo zhi

Masses

         1     12.011
         2     12.011
         3      1.008
         4     12.011
         5      1.008
         6     12.011
         7     12.011
         8      1.008
         9     12.011
        10      1.008
        11      1.008
        12     12.011
        13     12.011
        14      1.008
        15     12.011
        16      1.008
        17     12.011
        18      1.008
        19     12.011
        20     12.011
        21      1.008
        22      1.008
        23     12.011
        24     12.011
        25     12.011
        26      1.008
        27     12.011
        28     12.011

Pair Coeffs

         1          0.066      3.5000000
         2          0.066      3.5000000
         3          0.030      2.5000000
         4          0.070      3.5500000
         5          0.030      2.5000000
         6          0.070      3.5500000
         7          0.070      3.5500000
         8          0.030      2.4200000
         9          0.070      3.5500000
        10          0.030      2.4200000
        11          0.030      2.4200000
        12          0.066      3.5000000
        13          0.066      3.5000000
        14          0.030      2.5000000
        15          0.070      3.5500000
        16          0.030      2.5000000
        17          0.070      3.5500000
        18          0.030      2.4200000
        19          0.070      3.5500000
        20          0.066      3.5000000
        21          0.030      2.5000000
        22          0.030      2.5000000
        23          0.066      3.5000000
        24          0.066      3.5000000
        25          0.070      3.5500000
        26          0.030      2.5000000
        27          0.070      3.5500000
        28          0.070      3.5500000

Bond Coeffs

         1       268.0000         1.5290
         2       340.0000         1.0900
         3       317.0000         1.5100
         4       469.0000         1.4000
         5       367.0000         1.0800

Angle Coeffs

         1         37.500        110.700
         2         58.350        112.700
         3         33.000        107.800
         4         63.000        114.000
         5         35.000        109.500
         6         70.000        120.000
         7         63.000        120.000
         8         35.000        120.000

Dihedral Coeffs

         1         0.000         0.000         0.462         0.000
         2         0.000         0.000         0.300         0.000
         3         1.300        -0.200         0.200         0.000
         4         0.000         0.000         0.000         0.000
         5         0.000         7.250         0.000         0.000

Improper Coeffs

         1         2.500            -1             2

Atoms

         1     1     1      -0.172386        0.94930       -0.47800        1.10720
         2     1     2      -0.137986        1.99640       -0.40570        2.23270
         3     1     3       0.095114        1.04390       -1.46120        0.59860
         4     1     3       0.095114       -0.05320       -0.47050        1.57480
         5     1     4      -0.080586        1.82690       -1.55970        3.20750
         6     1     5       0.106914        1.86140        0.54560        2.78950
         7     1     5       0.106914        3.01440       -0.41200        1.79150
         8     1     6      -0.146286        0.66610       -1.65330        3.97910
         9     1     6      -0.146286        2.83770       -2.53090        3.36220
        10     1     7      -0.146886        0.48870       -2.71770        4.88070
        11     1     8       0.149214       -0.10600       -0.90300        3.89280
        12     1     7      -0.146886        2.65460       -3.59500        4.26450
        13     1     8       0.149214        3.75530       -2.45920        2.80200
        14     1     9      -0.152219        1.48000       -3.68530        5.00760
        15     1    10       0.148392       -0.41590       -2.78660        5.47120
        16     1    10       0.148392        3.42150       -4.34960        4.39620
        17     1    11       0.146684        1.34420       -4.51050        5.69790
        18     1    12      -0.165736       -0.32260        1.12680       -0.46330
        19     1    13      -0.076186        1.06220        0.69490        0.08490
        20     1    14       0.099043       -0.20070        1.73020       -1.39040
        21     1    14       0.099043       -0.84680        0.19860       -0.75650
        22     1    15      -0.074703        1.94640        0.30070       -1.09070
        23     1    16       0.111257        1.51360        1.57480        0.59300
        24     1    17      -0.145031        3.10860        1.03550       -1.36870
        25     1    17      -0.145031        1.58050       -0.75650       -1.94780
        26     1     7      -0.146886        3.91030        0.69920       -2.46770
        27     1    18       0.149889        3.39440        1.87130       -0.74610
        28     1     7      -0.146886        2.38490       -1.08850       -3.04580
        29     1    18       0.149889        0.67420       -1.32260       -1.77720
        30     1     9      -0.152219        3.55140       -0.36520       -3.29520
        31     1    10       0.148392        4.80590        1.27000       -2.67150
        32     1    10       0.148392        2.09980       -1.90360       -3.69790
        33     1    11       0.146684        4.17820       -0.62890       -4.13900
        34     1    12      -0.165736       -2.63400        2.16770       -0.02630
        35     1    13      -0.076186       -1.19470        1.93390        0.53420
        36     1    14       0.099043       -3.19280        2.82180        0.67920
        37     1    14       0.099043       -2.56390        2.71860       -0.98650
        38     1    15      -0.074703       -0.53030        3.25290        0.91250
        39     1    16       0.111257       -1.29410        1.34390        1.46550
        40     1    17      -0.145031       -0.07010        3.46000        2.22790
        41     1    17      -0.145031       -0.34830        4.26990       -0.04020
        42     1     7      -0.146886        0.55010        4.66730        2.58030
        43     1    18       0.149889       -0.17660        2.69130        2.98230
        44     1     7      -0.146886        0.26060        5.47900        0.32180
        45     1    18       0.149889       -0.67760        4.13620       -1.06040
        46     1     9      -0.152219        0.71510        5.67120        1.62670
        47     1    10       0.148392        0.89770        4.82210        3.59330
        48     1    10       0.148392        0.37620        6.26500       -0.41090
        49     1    11       0.146684        1.19600        6.60430        1.89920
        50     1    12      -0.165736       -4.90960        1.08040       -0.69480
        51     1    13      -0.076186       -3.43950        0.85110       -0.25830
        52     1    14       0.099043       -5.41970        0.09240       -0.73200
        53     1    14       0.099043       -5.41010        1.67730        0.09420
        54     1    15      -0.074703       -3.40760       -0.02460        0.97930
        55     1    16       0.111257       -2.96040        0.30110       -1.09120
        56     1    17      -0.145031       -2.82390       -1.30400        0.92570
        57     1    17      -0.145031       -3.87160        0.45940        2.22090
        58     1     7      -0.146886       -2.67070       -2.06200        2.08660
        59     1    18       0.149889       -2.45870       -1.69980       -0.01530
        60     1     7      -0.146886       -3.70160       -0.29580        3.38040
        61     1    18       0.149889       -4.32500        1.44090        2.29200
        62     1     9      -0.152219       -3.09050       -1.55150        3.31900
        63     1    10       0.148392       -2.21070       -3.04110        2.03830
        64     1    10       0.148392       -4.02950        0.09660        4.33540
        65     1    11       0.146684       -2.94030       -2.12470        4.22230
        66     1    12      -0.165736       -6.60490        1.75810       -2.51980
        67     1    13      -0.076186       -5.11160        1.78270       -2.06780
        68     1    14       0.099043       -6.68560        2.25110       -3.51380
        69     1    14       0.099043       -6.92180        0.70370       -2.65990
        70     1    15      -0.074703       -4.23840        1.18730       -3.16560
        71     1    16       0.111257       -4.81820        2.84540       -1.93260
        72     1    17      -0.145031       -3.23570        1.96950       -3.76970
        73     1    19      -0.144619       -4.41520       -0.14290       -3.59740
        74     1     7      -0.146886       -2.41920        1.42940       -4.76870
        75     1    18       0.149889       -3.07900        2.99750       -3.46650
        76     1     7      -0.146886       -3.60590       -0.67250       -4.60850
        77     1    18       0.149889       -5.17850       -0.76980       -3.15650
        78     1     9      -0.152219       -2.60140        0.10850       -5.18350
        79     1    10       0.148392       -1.64820        2.03710       -5.22530
        80     1    10       0.148392       -3.75870       -1.68910       -4.94870
        81     1    11       0.146684       -1.96750       -0.30810       -5.95590
        82     1    12      -0.165736       -9.05110        2.47160       -2.05930
        83     1    13      -0.076186       -7.59080        2.43780       -1.53070
        84     1    14       0.099043       -9.66310        3.10130       -1.37660
        85     1    14       0.099043       -9.04360        2.97490       -3.04660
        86     1    15      -0.074703       -7.15080        3.85240       -1.21010
        87     1    16       0.111257       -7.59130        1.84200       -0.59540
        88     1    17      -0.145031       -6.81510        4.20170        0.11210
        89     1    19      -0.144619       -7.06180        4.83080       -2.21890
        90     1     7      -0.146886       -6.38540        5.49530        0.41040
        91     1    18       0.149889       -6.88110        3.47030        0.90810
        92     1     7      -0.146886       -6.63330        6.12380       -1.91480
        93     1    18       0.149889       -7.32070        4.59190       -3.24410
        94     1     9      -0.152219       -6.28870        6.45460       -0.60070
        95     1    10       0.148392       -6.12790        5.75530        1.43010
        96     1    10       0.148392       -6.56680        6.87080       -2.69560
        97     1    11       0.146684       -5.95210        7.45490       -0.36810
        98     1    12      -0.165736      -11.24920        1.24640       -2.60670
        99     1    13      -0.076186       -9.74780        1.09310       -2.20990
       100     1    14       0.099043      -11.71480        0.23720       -2.64940
       101     1    14       0.099043      -11.77360        1.80630       -1.80500
       102     1    15      -0.074703       -9.62530        0.25410       -0.95060
       103     1    16       0.111257       -9.23550        0.55450       -3.03460
       104     1    17      -0.145031       -8.90120       -0.95550       -0.97890
       105     1    17      -0.145031      -10.19710        0.67330        0.26760
       106     1     7      -0.146886       -8.75020       -1.71760        0.17990
       107     1    18       0.149889       -8.44430       -1.30110       -1.89870
       108     1     7      -0.146886      -10.05200       -0.09940        1.42170
       109     1    18       0.149889      -10.74940        1.60350        0.32480
       110     1     9      -0.152219       -9.32370       -1.29240        1.38090
       111     1    10       0.148392       -8.18710       -2.64300        0.14970
       112     1    10       0.148392      -10.50130        0.22440        2.35250
       113     1    11       0.146684       -9.20600       -1.88560        2.27690
       114     1    12      -0.165736      -12.97930        2.00490       -4.38790
       115     1    13      -0.076186      -11.48610        1.97650       -3.95970
       116     1    14       0.099043      -13.04800        2.47560       -5.39400
       117     1    14       0.099043      -13.32990        0.95850       -4.49540
       118     1    15      -0.074703      -10.65900        1.35360       -5.06890
       119     1    16       0.111257      -11.16820        3.03160       -3.82890
       120     1    17      -0.145031       -9.70100        2.12680       -5.75100
       121     1    17      -0.145031      -10.79720       -0.00890       -5.39810
       122     1     7      -0.146886       -8.88770        1.54390       -6.72500
       123     1    18       0.149889       -9.57470        3.17690       -5.51820
       124     1     7      -0.146886       -9.97600       -0.58840       -6.36780
       125     1    18       0.149889      -11.52370       -0.62910       -4.88700
       126     1     9      -0.152219       -9.01970        0.18690       -7.02920
       127     1    10       0.148392       -8.14860        2.14440       -7.24060
       128     1    10       0.148392      -10.07430       -1.64070       -6.60160
       129     1    11       0.146684       -8.38210       -0.26460       -7.77690
       130     1    12      -0.165736      -15.38670        2.83840       -3.97260
       131     1    13      -0.076186      -13.93220        2.76190       -3.42200
       132     1    14       0.099043      -16.00050        3.45580       -3.28040
       133     1    14       0.099043      -15.36510        3.37200       -4.94560
       134     1    15      -0.074703      -13.42660        4.16150       -3.10990
       135     1    16       0.111257      -13.96670        2.18450       -2.47510
       136     1    17      -0.145031      -13.11980        4.51600       -1.78130
       137     1    17      -0.145031      -13.22760        5.11420       -4.12920
       138     1     7      -0.146886      -12.60970        5.78160       -1.48500
       139     1    18       0.149889      -13.26820        3.80800       -0.97580
       140     1     7      -0.146886      -12.71300        6.37840       -3.82700
       141     1    18       0.149889      -13.45640        4.87440       -5.16050
       142     1     9      -0.152219      -12.39940        6.71080       -2.50580
       143     1    10       0.148392      -12.37370        6.04280       -0.46050
       144     1    10       0.148392      -12.55140        7.10240       -4.61550
       145     1    11       0.146684      -11.99610        7.68770       -2.27440
       146     1    12      -0.165736      -17.57460        1.59440       -4.59250
       147     1    13      -0.076186      -16.08210        1.46140       -4.17230
       148     1    14       0.099043      -18.02180        0.57640       -4.63700
       149     1    14       0.099043      -18.11710        2.14940       -3.79930
       150     1    15      -0.074703      -15.99390        0.59690       -2.92730
       151     1    16       0.111257      -15.55450        0.94100       -4.99820
       152     1    17      -0.145031      -15.36120       -0.65970       -2.98620
       153     1    17      -0.145031      -16.54850        1.02410       -1.70530
       154     1     7      -0.146886      -15.29940       -1.47310       -1.85240
       155     1    18       0.149889      -14.92200       -1.01240       -3.91090
       156     1     7      -0.146886      -16.48090        0.20720       -0.57390
       157     1    18       0.149889      -17.03370        1.98940       -1.62750
       158     1     9      -0.152219      -15.86040       -1.04280       -0.64830
       159     1    10       0.148392      -14.82160       -2.44330       -1.90940
       160     1    10       0.148392      -16.91400        0.53930        0.36050
       161     1    11       0.146684      -15.81850       -1.67810        0.22630
       162     1    12      -0.165736      -19.31220        2.29530       -6.37200
       163     1    13      -0.076186      -17.81320        2.30190       -5.95320
       164     1    14       0.099043      -19.39720        2.71950       -7.39670
       165     1    14       0.099043      -19.65690        1.24170       -6.43050
       166     1    15      -0.074703      -16.97830        1.68430       -7.06100
       167     1    16       0.111257      -17.50420        3.36030       -5.83230
       168     1    17      -0.145031      -16.01360        2.46210       -7.72910
       169     1    17      -0.145031      -17.13990        0.33440       -7.42960
       170     1     7      -0.146886      -15.22690        1.90000       -8.73670
       171     1    18       0.149889      -15.86710        3.50250       -7.46700
       172     1     7      -0.146886      -16.35180       -0.22170       -8.44070
       173     1    18       0.149889      -17.87090       -0.29040       -6.93140
       174     1     9      -0.152219      -15.39420        0.56010       -9.09250
       175     1    10       0.148392      -14.48660        2.50560       -9.24410
       176     1    10       0.148392      -16.48100       -1.25940       -8.71990
       177     1    11       0.146684      -14.78450        0.12760       -9.87440
       178     1    12      -0.165736      -21.70820        3.18730       -6.00440
       179     1    13      -0.076186      -20.26660        3.07640       -5.42780
       180     1    14       0.099043      -22.31630        3.82240       -5.32270
       181     1    14       0.099043      -21.65820        3.71760       -6.97830
       182     1    15      -0.074703      -19.74390        4.46810       -5.12040
       183     1    16       0.111257      -20.32790        2.50780       -4.47620
       184     1    17      -0.145031      -19.44500        4.83130       -3.79340
       185     1    17      -0.145031      -19.53800        5.40900       -6.14800
       186     1     7      -0.146886      -18.95220        6.10590       -3.50420
       187     1    18       0.149889      -19.59000        4.12750       -2.98300
       188     1     7      -0.146886      -19.04680        6.68280       -5.85230
       189     1    18       0.149889      -19.75030        5.15480       -7.17900
       190     1     9      -0.152219      -18.75360        7.03120       -4.53120
       191     1    10       0.148392      -18.72590        6.37780       -2.48080
       192     1    10       0.148392      -18.89230        7.40130       -6.64680
       193     1    11       0.146684      -18.37510        8.01870       -4.30460
       194     1    12      -0.165736      -23.92470        2.02690       -6.63950
       195     1    13      -0.076186      -22.44070        1.83470       -6.21580
       196     1    14       0.099043      -24.41430        1.02920       -6.68680
       197     1    14       0.099043      -24.44300        2.60230       -5.84460
       198     1    15      -0.074703      -22.38300        0.96600       -4.97200
       199     1    16       0.111257      -21.92240        1.30280       -7.04080
       200     1    17      -0.145031      -21.76030       -0.29530       -5.02290
       201     1    17      -0.145031      -22.92520        1.41050       -3.75040
       202     1     7      -0.146886      -21.67120       -1.08560       -3.87450
       203     1    18       0.149889      -21.33710       -0.66440       -5.94900
       204     1     7      -0.146886      -22.83290        0.61580       -2.60510
       205     1    18       0.149889      -23.40750        2.37750       -3.68000
       206     1     9      -0.152219      -22.20340       -0.63010       -2.66640
       207     1    10       0.148392      -21.18750       -2.05310       -3.92140
       208     1    10       0.148392      -23.24580        0.96640       -1.66810
       209     1    11       0.146684      -22.13080       -1.24250       -1.77780
       210     1    12      -0.165736      -25.63150        2.78100       -8.42140
       211     1    13      -0.076186      -24.13610        2.75340       -7.99620
       212     1    14       0.099043      -25.70770        3.23830       -9.43270
       213     1    14       0.099043      -25.98640        1.73370       -8.51450
       214     1    15      -0.074703      -23.31030        2.12730       -9.10680
       215     1    16       0.111257      -23.80780        3.80550       -7.86450
       216     1    17      -0.145031      -22.35480        2.89940       -9.79420
       217     1    17      -0.145031      -23.47400        0.77320       -9.45940
       218     1     7      -0.146886      -21.57570        2.32610      -10.80250
       219     1    18       0.149889      -22.21010        3.94430       -9.54880
       220     1     7      -0.146886      -22.68990        0.20470      -10.46660
       221     1    18       0.149889      -24.20050        0.15390       -8.94840
       222     1     9      -0.152219      -21.73980        0.98010      -11.13610
       223     1    10       0.148392      -20.84370        2.92730      -11.32710
       224     1    10       0.148392      -22.81660       -0.83790      -10.72840
       225     1    11       0.146684      -21.13360        0.53760      -11.91520
       226     1    12      -0.165736      -28.02850        3.64030       -7.99820
       227     1    13      -0.076186      -26.57640        3.54390       -7.45260
       228     1    14       0.099043      -28.63130        4.26430       -7.30170
       229     1    14       0.099043      -28.00070        4.17700       -8.96910
       230     1    15      -0.074703      -26.06280        4.94030       -7.14520
       231     1    16       0.111257      -26.61760        2.96770       -6.50520
       232     1    17      -0.145031      -25.77920        5.30860       -5.81650
       233     1    17      -0.145031      -25.85770        5.88250       -8.17230
       234     1     7      -0.146886      -25.29770        6.58740       -5.52480
       235     1    18       0.149889      -25.93050        4.60690       -5.00570
       236     1     7      -0.146886      -25.37260        7.15890       -7.87470
       237     1    18       0.149889      -26.06520        5.62830       -9.20420
       238     1     9      -0.152219      -25.09220        7.51080       -6.55200
       239     1    10       0.148392      -25.08590        6.86380       -4.49960
       240     1    10       0.148392      -25.21370        7.87700       -8.66890
       241     1    11       0.146684      -24.71920        8.50030       -6.32380
       242     1    12      -0.165736      -30.22920        2.44910       -8.62940
       243     1    13      -0.076186      -28.74600        2.27730       -8.19940
       244     1    14       0.099043      -30.70620        1.44510       -8.67640
       245     1    14       0.099043      -30.75710        3.01990       -7.83760
       246     1    15      -0.074703      -28.68490        1.41450       -6.95020
       247     1    16       0.111257      -28.22440        1.74450       -9.02110
       248     1    17      -0.145031      -28.07870        0.14530       -7.00170
       249     1    17      -0.145031      -29.23120        1.86010       -5.73030
       250     1     7      -0.146886      -28.02140       -0.65780       -5.85960
       251     1    18       0.149889      -27.65290       -0.22510       -7.92580
       252     1     7      -0.146886      -29.16800        1.05360       -4.59060
       253     1    18       0.149889      -29.70230        2.83230       -5.65860
       254     1     9      -0.152219      -28.56390       -0.20440       -4.65550
       255     1    10       0.148392      -27.55920       -1.63560       -5.90980
       256     1    10       0.148392      -29.58900        1.40190       -3.65620
       257     1    11       0.146684      -28.52040       -0.82890       -3.77300
       258     1    12      -0.165736      -31.93280        3.19580      -10.41620
       259     1    13      -0.076186      -30.43930        3.16850       -9.98950
       260     1    14       0.099043      -32.00680        3.64610      -11.43080
       261     1    14       0.099043      -32.28960        2.14850      -10.50170
       262     1    15      -0.074703      -29.61450        2.53810      -11.09870
       263     1    16       0.111257      -30.11290        4.22150       -9.86340
       264     1    17      -0.145031      -28.66270        3.30920      -11.79170
       265     1    17      -0.145031      -29.78890        1.18670      -11.45710
       266     1     7      -0.146886      -27.90670        2.74180      -12.82080
       267     1    18       0.149889      -28.50730        4.35070      -11.53910
       268     1     7      -0.146886      -29.02860        0.62430      -12.48610
       269     1    18       0.149889      -30.51060        0.56700      -10.94000
       270     1     9      -0.152219      -28.08910        1.40160      -13.16800
       271     1    10       0.148392      -27.18180        3.34420      -13.35350
       272     1    10       0.148392      -29.16900       -0.41390      -12.75840
       273     1    11       0.146684      -27.50580        0.96560      -13.96810
       274     1    12      -0.165736      -34.32460        4.06550      -10.00410
       275     1    13      -0.076186      -32.87560        3.96800       -9.45410
       276     1    14       0.099043      -34.92710        4.69750       -9.31460
       277     1    14       0.099043      -34.29170        4.59360      -10.97950
       278     1    15      -0.074703      -32.36100        5.36550       -9.15560
       279     1    16       0.111257      -32.92090        3.39850       -8.50280
       280     1    17      -0.145031      -32.07300        5.74040       -7.83010
       281     1    17      -0.145031      -32.17100        6.30610      -10.18720
       282     1     7      -0.146886      -31.61020        7.02730       -7.54410
       283     1    18       0.149889      -32.20960        5.03870       -7.01660
       284     1     7      -0.146886      -31.70710        7.59150       -9.89510
       285     1    18       0.149889      -32.37970        6.04570      -11.21730
       286     1     9      -0.152219      -31.42790        7.95200       -8.57460
       287     1    10       0.148392      -31.39780        7.30970       -6.52080
       288     1    10       0.148392      -31.56640        8.31060      -10.69180
       289     1    11       0.146684      -31.07430        8.94950       -8.35040
       290     1    12      -0.165736      -36.52710        2.88320      -10.62440
       291     1    13      -0.076186      -35.04560        2.70460      -10.19740
       292     1    14       0.099043      -37.01170        1.88260      -10.66480
       293     1    14       0.099043      -37.04820        3.46250       -9.83440
       294     1    15      -0.074703      -34.98700        1.84870       -8.94420
       295     1    16       0.111257      -34.52780        2.16530      -11.01740
       296     1    17      -0.145031      -34.37270        0.58340       -8.98520
       297     1    17      -0.145031      -35.54310        2.29830       -7.73020
       298     1     7      -0.146886      -34.31690       -0.21280       -7.83850
       299     1    18       0.149889      -33.93800        0.21110       -9.90460
       300     1     7      -0.146886      -35.48410        1.49760       -6.58660
       301     1    18       0.149889      -36.01930        3.26860       -7.66670
       302     1     9      -0.152219      -34.87150        0.24320       -6.64070
       303     1    10       0.148392      -33.84660       -1.18710       -7.88010
       304     1    10       0.148392      -35.91500        1.84780       -5.65750
       305     1    11       0.146684      -34.83040       -0.37640       -5.75490
       306     1    12      -0.165736      -38.22630        3.62700      -12.40810
       307     1    13      -0.076186      -36.73410        3.59840      -11.98630
       308     1    14       0.099043      -38.30430        4.07690      -13.42260
       309     1    14       0.099043      -38.58210        2.57940      -12.49130
       310     1    15      -0.074703      -35.91470        2.95880      -13.09340
       311     1    16       0.111257      -36.40480        4.65120      -11.86600
       312     1    17      -0.145031      -34.95570        3.71960      -13.78730
       313     1    17      -0.145031      -36.09780        1.60680      -13.44470
       314     1     7      -0.146886      -34.19720        3.14010      -14.80750
       315     1    18       0.149889      -34.79500        4.76180      -13.54050
       316     1     7      -0.146886      -35.33620        1.03270      -14.46570
       317     1    18       0.149889      -36.82620        0.99540      -12.92710
       318     1     9      -0.152219      -34.38640        1.79860      -15.14610
       319     1    10       0.148392      -33.46440        3.73370      -15.33920
       320     1    10       0.148392      -35.48260       -0.00630      -14.73150
       321     1    11       0.146684      -33.80010        1.35250      -15.93830
       322     1    12      -0.165736      -40.61130        4.48670      -11.98410
       323     1    13      -0.076186      -39.16310        4.39810      -11.44050