LAMMPS data file Generated by mappingff

      3102 atoms
      3201 bonds
      5800 angles
      8591 dihedrals
       700 impropers

        52 atom types
         9 bond types
        13 angle types
        11 dihedral types
         2 improper types

 -400.827300     6.759100 xlo xhi
   -8.670300    84.081400 ylo yhi
 -113.162500    11.412100 zlo zhi

Masses

         1     12.011
         2     12.011
         3      1.008
         4     12.011
         5      1.008
         6     12.011
         7     12.011
         8      1.008
         9     12.011
        10      1.008
        11      1.008
        12     12.011
        13     12.011
        14      1.008
        15     12.011
        16      1.008
        17     12.011
        18     12.011
        19      1.008
        20     12.011
        21     12.011
        22     12.011
        23      1.008
        24     12.011
        25     12.011
        26     12.011
        27      1.008
        28     12.011
        29      1.008
        30     12.011
        31     12.011
        32      1.008
        33     12.011
        34     12.011
        35     15.999
        36     15.999
        37      1.008
        38     12.011
        39      1.008
        40     12.011
        41     12.011
        42     12.011
        43     12.011
        44     12.011
        45     12.011
        46      1.008
        47      1.008
        48     12.011
        49     12.011
        50     12.011
        51     15.999
        52     15.999

Pair Coeffs

         1          0.066      3.5000000
         2          0.066      3.5000000
         3          0.030      2.5000000
         4          0.070      3.5500000
         5          0.030      2.5000000
         6          0.070      3.5500000
         7          0.070      3.5500000
         8          0.030      2.4200000
         9          0.070      3.5500000
        10          0.030      2.4200000
        11          0.030      2.4200000
        12          0.066      3.5000000
        13          0.066      3.5000000
        14          0.030      2.5000000
        15          0.070      3.5500000
        16          0.030      2.5000000
        17          0.070      3.5500000
        18          0.070      3.5500000
        19          0.030      2.4200000
        20          0.066      3.5000000
        21          0.066      3.5000000
        22          0.070      3.5500000
        23          0.030      2.5000000
        24          0.066      3.5000000
        25          0.066      3.5000000
        26          0.066      3.5000000
        27          0.030      2.5000000
        28          0.070      3.5500000
        29          0.030      2.5000000
        30          0.066      3.5000000
        31          0.066      3.5000000
        32          0.030      2.5000000
        33          0.070      3.5500000
        34          0.066      3.5000000
        35          0.140      2.9000000
        36          0.210      2.9600000
        37          0.030      2.5000000
        38          0.066      3.5000000
        39          0.030      2.5000000
        40          0.066      3.5000000
        41          0.066      3.5000000
        42          0.070      3.5500000
        43          0.066      3.5000000
        44          0.066      3.5000000
        45          0.066      3.5000000
        46          0.030      2.5000000
        47          0.030      2.5000000
        48          0.066      3.5000000
        49          0.066      3.5000000
        50          0.070      3.5500000
        51          0.140      2.9000000
        52          0.210      2.9600000

Bond Coeffs

         1       268.0000         1.5290
         2       340.0000         1.0900
         3       317.0000         1.5100
         4       469.0000         1.4000
         5       367.0000         1.0800
         6       317.0000         1.5220
         7       214.0000         1.3270
         8       570.0000         1.2290
         9       320.0000         1.4100

Angle Coeffs

         1         37.500        110.700
         2         58.350        112.700
         3         33.000        107.800
         4         63.000        114.000
         5         35.000        109.500
         6         70.000        120.000
         7         63.000        120.000
         8         35.000        120.000
         9         63.000        111.100
        10         81.000        111.400
        11         80.000        120.400
        12         83.000        123.400
        13         83.000        116.900

Dihedral Coeffs

         1         0.000         0.000         0.462         0.000
         2         0.000         0.000         0.300         0.000
         3         1.300        -0.200         0.200         0.000
         4         0.000         0.000         0.000         0.000
         5         0.000         7.250         0.000         0.000
         6         0.000         0.000        -0.100         0.000
         7        -2.060        -0.313         0.315         0.000
         8         0.000         0.000        -0.553         0.000
         9         4.669         5.124         0.000         0.000
        10         0.000         5.124         0.000         0.000
        11         0.000         0.000         0.198         0.000

Improper Coeffs

         1         2.500            -1             2
         2        10.500            -1             2

Atoms

         1     1     1      -0.167018       -1.91290        0.16030        0.30710
         2     1     2      -0.141418       -0.51260       -0.38220        0.63970
         3     1     3       0.096582       -2.60210       -0.69320        0.12460
         4     1     3       0.096582       -2.28640        0.71290        1.19640
         5     1     4      -0.078818       -0.47560       -1.00130        2.01140
         6     1     5       0.105082        0.22710        0.44530        0.57050
         7     1     5       0.105082       -0.22020       -1.15530       -0.10360
         8     1     6      -0.145018        0.30030       -0.42060        3.02910
         9     1     6      -0.145018       -1.19670       -2.17800        2.28060
        10     1     7      -0.146318        0.35350       -1.00810        4.29580
        11     1     8       0.148782        0.86470        0.48510        2.84280
        12     1     7      -0.146318       -1.14090       -2.76200        3.54980
        13     1     8       0.148782       -1.79490       -2.64540        1.50760
        14     1     9      -0.152262       -0.36590       -2.17790        4.55630
        15     1    10       0.148204        0.95540       -0.55670        5.07410
        16     1    10       0.148204       -1.69430       -3.67030        3.75140
        17     1    11       0.146393       -0.31990       -2.63290        5.53690
        18     1    12      -0.165218       -3.35880        1.40220       -1.41130
        19     1    13      -0.075218       -1.92130        1.12430       -0.90890
        20     1    14       0.098257       -3.31400        2.02360       -2.33280
        21     1    14       0.098257       -3.80000        0.43140       -1.70590
        22     1    15      -0.074518       -1.07480        0.59380       -2.05530
        23     1    16       0.114982       -1.48750        2.08930       -0.56490
        24     1    17      -0.141085        0.05720        1.31090       -2.48330
        25     1    17      -0.141085       -1.37250       -0.64010       -2.66690
        26     1    18      -0.147531        0.88210        0.79690       -3.48760
        27     1    19       0.149357        0.31320        2.25960       -2.02820
        28     1    18      -0.147531       -0.54470       -1.14830       -3.67180
        29     1    19       0.149357       -2.22880       -1.22090       -2.34920
        30     1     9      -0.152262        0.58380       -0.43280       -4.07870
        31     1    10       0.148204        1.75910        1.34850       -3.80070
        32     1    10       0.148204       -0.77210       -2.10360       -4.12680
        33     1    11       0.146393        1.23050       -0.83360       -4.84830
        34     1    20      -0.165018       -5.73680        2.21850       -0.87900
        35     1    21      -0.075368       -4.27680        2.09460       -0.36950
        36     1    14       0.098257       -6.32080        2.83500       -0.16020
        37     1    14       0.098257       -5.72130        2.77070       -1.83980
        38     1    22      -0.075493       -3.73340        3.45900        0.02110
        39     1    23       0.113332       -4.30630        1.46210        0.53970
        40     1    17      -0.141085       -3.32730        3.70130        1.34720
        41     1    17      -0.141085       -3.59600        4.48790       -0.93130
        42     1    18      -0.147531       -2.78310        4.93750        1.70710
        43     1    19       0.149357       -3.42010        2.93080        2.10260
        44     1    18      -0.147531       -3.05240        5.72280       -0.56510
        45     1    19       0.149357       -3.89970        4.33430       -1.95850
        46     1     9      -0.152262       -2.64300        5.94620        0.75150
        47     1    10       0.148204       -2.46460        5.11150        2.72700
        48     1    10       0.148204       -2.94320        6.50540       -1.30480
        49     1    11       0.146393       -2.21580        6.90040        1.03130
        50     1    20      -0.165018       -7.93140        1.03450       -1.52810
        51     1    21      -0.075368       -6.46030        0.85540       -1.07940
        52     1    14       0.098257       -8.42120        0.03590       -1.56560
        53     1    14       0.098257       -8.45860        1.62610       -0.75290
        54     1    22      -0.075493       -6.38540       -0.00220        0.17370
        55     1    23       0.113332       -5.95070        0.31190       -1.89820
        56     1    17      -0.141085       -5.68980       -1.22580        0.14530
        57     1    17      -0.141085       -6.91610        0.45100        1.39700
        58     1    18      -0.147531       -5.50240       -1.96180        1.31850
        59     1    19       0.149357       -5.26560       -1.59800       -0.77890
        60     1    18      -0.147531       -6.72530       -0.28970        2.56750
        61     1    19       0.149357       -7.44760        1.39210        1.45280
        62     1     9      -0.152262       -6.01320       -1.49090        2.52960
        63     1    10       0.148204       -4.94800       -2.89090        1.29060
        64     1    10       0.148204       -7.11560        0.07620        3.50820
        65     1    11       0.146393       -5.85280       -2.05460        3.43960
        66     1    20      -0.165018       -9.57270        1.78510       -3.36440
        67     1    21      -0.075368       -8.09420        1.73160       -2.90960
        68     1    14       0.098257       -9.62130        2.21670       -4.38900
        69     1    14       0.098257       -9.94660        0.74420       -3.43300
        70     1    22      -0.075493       -7.25580        1.05640       -3.98400
        71     1    23       0.113332       -7.75040        2.78110       -2.80270
        72     1    17      -0.141085       -6.22370        1.76840       -4.62320
        73     1    17      -0.141085       -7.46300       -0.29510       -4.32460
        74     1    18      -0.147531       -5.40910        1.13870       -5.56840
        75     1    19       0.149357       -6.03870        2.80760       -4.38190
        76     1    18      -0.147531       -6.64810       -0.91810       -5.27410
        77     1    19       0.149357       -8.24370       -0.87210       -3.84610
        78     1     9      -0.152262       -5.61950       -0.20340       -5.89210
        79     1    10       0.148204       -4.61080        1.69110       -6.04680
        80     1    10       0.148204       -6.80970       -1.95840       -5.52520
        81     1    11       0.146393       -4.98420       -0.69000       -6.62080
        82     1    20      -0.165018      -11.95350        2.66050       -2.97210
        83     1    21      -0.075368      -10.50420        2.59910       -2.42810
        84     1    14       0.098257      -12.56090        3.31480       -2.30820
        85     1    14       0.098257      -11.92730        3.14580       -3.96820
        86     1    22      -0.075493       -9.97370        4.00480       -2.19700
        87     1    23       0.113332      -10.54680        2.07550       -1.45130
        88     1    17      -0.141085       -9.57920        4.40420       -0.90620
        89     1    17      -0.141085       -9.82130        4.90960       -3.26600
        90     1    18      -0.147531       -9.03380        5.67310       -0.69330
        91     1    19       0.149357       -9.67820        3.72960       -0.06510
        92     1    18      -0.147531       -9.28300        6.18060       -3.04530
        93     1    19       0.149357      -10.10590        4.63000       -4.27200
        94     1     9      -0.152262       -8.88600        6.56060       -1.76120
        95     1    10       0.148204       -8.72110        5.96650        0.30050
        96     1    10       0.148204       -9.16650        6.86880       -3.87240
        97     1    11       0.146393       -8.46120        7.54190       -1.59410
        98     1    20      -0.165018      -14.12670        1.41490       -3.54630
        99     1    21      -0.075368      -12.65050        1.27780       -3.10350
       100     1    14       0.098257      -14.59760        0.40680       -3.55360
       101     1    14       0.098257      -14.65720        2.01500       -2.78020
       102     1    22      -0.075493      -12.57120        0.48370       -1.81000
       103     1    23       0.113332      -12.12840        0.70730       -3.89910
       104     1    17      -0.141085      -11.91510       -0.76090       -1.78700
       105     1    17      -0.141085      -13.09910        0.99800       -0.60960
       106     1    18      -0.147531      -11.77130       -1.46320       -0.58730
       107     1    19       0.149357      -11.50130       -1.18340       -2.69420
       108     1    18      -0.147531      -12.95010        0.29230        0.58760
       109     1    19       0.149357      -13.60500        1.95460       -0.59410
       110     1     9      -0.152262      -12.28350       -0.93490        0.59960
       111     1    10       0.148204      -11.25580       -2.41470       -0.57710
       112     1    10       0.148204      -13.34370        0.70210        1.50860
       113     1    11       0.146393      -12.16210       -1.47580        1.52920
       114     1    20      -0.165018      -15.80920        2.10960       -5.36070
       115     1    21      -0.075368      -14.32020        2.07680       -4.93880
       116     1    14       0.098257      -15.88430        2.53320       -6.38680
       117     1    14       0.098257      -16.17450        1.06440       -5.41520
       118     1    22      -0.075493      -13.49540        1.38370       -6.01210
       119     1    23       0.113332      -13.98410        3.13150       -4.86360
       120     1    17      -0.141085      -12.50250        2.09800       -6.70830
       121     1    17      -0.141085      -13.67760        0.01640       -6.29880
       122     1    18      -0.147531      -11.69970        1.45520       -7.65490
       123     1    19       0.149357      -12.34010        3.15050       -6.51230
       124     1    18      -0.147531      -12.87200       -0.62080       -7.24700
       125     1    19       0.149357      -14.43020       -0.56140       -5.77860
       126     1     9      -0.152262      -11.88160        0.09660       -7.92140
       127     1    10       0.148204      -10.93250        2.01030       -8.17870
       128     1    10       0.148204      -13.01120       -1.67400       -7.45400
       129     1    11       0.146393      -11.25420       -0.40060       -8.65000
       130     1    20      -0.165018      -18.18480        2.98470       -4.92500
       131     1    21      -0.075368      -16.72830        2.92010       -4.40610
       132     1    14       0.098257      -18.78000        3.64010       -4.25110
       133     1    14       0.098257      -18.16990        3.47180       -5.92070
       134     1    22      -0.075493      -16.20030        4.32610       -4.17050
       135     1    23       0.113332      -16.75750        2.39040       -3.43230
       136     1    17      -0.141085      -15.86570        4.74230       -2.86840
       137     1    17      -0.141085      -15.99910        5.21710       -5.24300
       138     1    18      -0.147531      -15.32600        6.01230       -2.64740
       139     1    19       0.149357      -16.01250        4.08150       -2.02320
       140     1    18      -0.147531      -15.45680        6.48550       -5.01590
       141     1    19       0.149357      -16.24400        4.92600       -6.25600
       142     1     9      -0.152262      -15.11770        6.88150       -3.72020
       143     1    10       0.148204      -15.06460        6.32060       -1.64340
       144     1    10       0.148204      -15.29280        7.15970       -5.84640
       145     1    11       0.146393      -14.69270        7.86180       -3.54730
       146     1    20      -0.165018      -20.37540        1.74060       -5.44450
       147     1    21      -0.075368      -18.88710        1.60290       -5.04220
       148     1    14       0.098257      -20.83930        0.72960       -5.46150
       149     1    14       0.098257      -20.89410        2.31970       -4.65460
       150     1    22      -0.075493      -18.78300        0.80420       -3.75290
       151     1    23       0.113332      -18.38470        1.03450       -5.85270
       152     1    17      -0.141085      -18.14180       -0.44830       -3.74890
       153     1    17      -0.141085      -19.29420        1.31180       -2.54210
       154     1    18      -0.147531      -18.00740       -1.17080       -2.56000
       155     1    19       0.149357      -17.73920       -0.86480       -4.66380
       156     1    18      -0.147531      -19.15600        0.58520       -1.35630
       157     1    19       0.149357      -19.78670        2.27500       -2.51130
       158     1     9      -0.152262      -18.51230       -0.65410       -1.36470
       159     1    10       0.148204      -17.50900       -2.13140       -2.56520
       160     1    10       0.148204      -19.54450        0.98590       -0.42910
       161     1    11       0.146393      -18.40430       -1.21380       -0.44470
       162     1    20      -0.165018      -22.11270        2.49320       -7.17730
       163     1    21      -0.075368      -20.60850        2.42940       -6.81500
       164     1    14       0.098257      -22.21830        2.92800       -8.19610
       165     1    14       0.098257      -22.49420        1.45310       -7.22490
       166     1    22      -0.075493      -19.83090        1.74400       -7.92750
       167     1    23       0.113332      -20.25130        3.47570       -6.73490
       168     1    17      -0.141085      -18.84000        2.45260       -8.63260
       169     1    17      -0.141085      -20.05110        0.38830       -8.24110
       170     1    18      -0.147531      -18.07530        1.81500       -9.61330
       171     1    19       0.149357      -18.64770        3.49590       -8.41590
       172     1    18      -0.147531      -19.28510       -0.24320       -9.22540
       173     1    19       0.149357      -20.80270       -0.18540       -7.71500
       174     1     9      -0.152262      -18.29550        0.46790       -9.90760
       175     1    10       0.148204      -17.30740        2.36500      -10.14170
       176     1    10       0.148204      -19.45330       -1.28770       -9.45360
       177     1    11       0.146393      -17.69790       -0.02530      -10.66340
       178     1    20      -0.165018      -24.43620        3.49570       -6.70090
       179     1    21      -0.075368      -22.98920        3.30740       -6.18110
       180     1    14       0.098257      -24.99990        4.13510       -5.98620
       181     1    14       0.098257      -24.38890        4.05200       -7.65860
       182     1    22      -0.075493      -22.38200        4.66670       -5.87140
       183     1    23       0.113332      -23.05700        2.72440       -5.23770
       184     1    17      -0.141085      -22.04670        5.00500       -4.54730
       185     1    17      -0.141085      -22.10730        5.58860       -6.90070
       186     1    18      -0.147531      -21.43620        6.22990       -4.26270
       187     1    19       0.149357      -22.24770        4.31820       -3.73480
       188     1    18      -0.147531      -21.49290        6.81000       -6.61050
       189     1    19       0.149357      -22.34650        5.35370       -7.92980
       190     1     9      -0.152262      -21.15630        7.12980       -5.29330
       191     1    10       0.148204      -21.17580        6.47950       -3.24220
       192     1    10       0.148204      -21.27110        7.50620       -7.40880
       193     1    11       0.146393      -20.67780        8.07490       -5.07130
       194     1    20      -0.165018      -26.62630        2.40760       -7.50050
       195     1    21      -0.075368      -25.21020        2.16940       -6.91680
       196     1    14       0.098257      -27.14820        1.42710       -7.56480
       197     1    14       0.098257      -27.19880        3.03140       -6.78370
       198     1    22      -0.075493      -25.29850        1.35210       -5.63720
       199     1    23       0.113332      -24.65620        1.57140       -7.66490
       200     1    17      -0.141085      -24.71600        0.07150       -5.58010
       201     1    17      -0.141085      -25.94160        1.85810       -4.49070
       202     1    18      -0.147531      -24.77000       -0.68040       -4.40320
       203     1    19       0.149357      -24.21520       -0.34640       -6.44450
       204     1    18      -0.147531      -25.99290        1.10070       -3.31610
       205     1    19       0.149357      -26.39820        2.83890       -4.50100
       206     1     9      -0.152262      -25.40680       -0.16630       -3.27200
       207     1    10       0.148204      -24.31660       -1.66270       -4.36830
       208     1    10       0.148204      -26.48550        1.49750       -2.43790
       209     1    11       0.146393      -25.44600       -0.75010       -2.36130
       210     1    20      -0.165018      -28.05800        3.02120       -9.55180
       211     1    21      -0.075368      -26.65550        3.09270       -8.90050
       212     1    14       0.098257      -28.00640        3.44180      -10.58100
       213     1    14       0.098257      -28.31400        1.94940       -9.65310
       214     1    22      -0.075493      -25.64870        2.48310       -9.86300
       215     1    23       0.113332      -26.40940        4.16660       -8.75550
       216     1    17      -0.141085      -24.68940        3.29710      -10.49160
       217     1    17      -0.141085      -25.66250        1.10240      -10.14480
       218     1    18      -0.147531      -23.75920        2.74020      -11.37400
       219     1    19       0.149357      -24.66270        4.36320      -10.30340
       220     1    18      -0.147531      -24.72270        0.54970      -11.01790
       221     1    19       0.149357      -26.38680        0.45090       -9.67320
       222     1     9      -0.152262      -23.77290        1.36770      -11.63340
       223     1    10       0.148204      -23.02780        3.37390      -11.85830
       224     1    10       0.148204      -24.73080       -0.51420      -11.21620
       225     1    11       0.146393      -23.04940        0.93810      -12.31360
       226     1    20      -0.165018      -30.57120        3.55380       -9.42930
       227     1    21      -0.075368      -29.17720        3.75330       -8.76900
       228     1    14       0.098257      -31.32510        4.15200       -8.87270
       229     1    14       0.098257      -30.53000        3.96880      -10.45100
       230     1    22      -0.075493      -28.86360        5.23660       -8.63660
       231     1    23       0.113332      -29.23450        3.31250       -7.75240
       232     1    17      -0.141085      -28.51850        5.77550       -7.38260
       233     1    17      -0.141085      -28.88090        6.08900       -9.75980
       234     1    18      -0.147531      -28.20730        7.13290       -7.25570
       235     1    19       0.149357      -28.47290        5.14450       -6.50420
       236     1    18      -0.147531      -28.59570        7.44980       -9.62140
       237     1    19       0.149357      -29.11730        5.70800      -10.74400
       238     1     9      -0.152262      -28.25580        7.97100       -8.37190
       239     1    10       0.148204      -27.92790        7.53550       -6.29080
       240     1    10       0.148204      -28.63400        8.09980      -10.48610
       241     1    11       0.146393      -28.02540        9.02360       -8.27010
       242     1    20      -0.165018      -32.45930        1.93290      -10.14520
       243     1    21      -0.075368      -31.04910        2.07650       -9.51330
       244     1    14       0.098257      -32.69350        0.84940      -10.24090
       245     1    14       0.098257      -33.19640        2.36170       -9.43880
       246     1    22      -0.075493      -31.01140        1.42050       -8.14110
       247     1    23       0.113332      -30.36420        1.52880      -10.19080
       248     1    17      -0.141085      -30.16460        0.32130       -7.90510
       249     1    17      -0.141085      -31.74000        1.96130       -7.06270
       250     1    18      -0.147531      -30.02930       -0.20430       -6.61620
       251     1    19       0.149357      -29.58770       -0.11390       -8.71140
       252     1    18      -0.147531      -31.59600        1.43550       -5.77590
       253     1    19       0.149357      -32.39180        2.81290       -7.20820
       254     1     9      -0.152262      -30.73790        0.35720       -5.55170
       255     1    10       0.148204      -29.36280       -1.03860       -6.43920
       256     1    10       0.148204      -32.13800        1.87580       -4.94890
       257     1    11       0.146393      -30.61870       -0.03980       -4.55180
       258     1    20      -0.165018      -34.00780        2.26100      -12.19460
       259     1    21      -0.075368      -32.64620        2.61660      -11.53390
       260     1    14       0.098257      -34.10020        2.83630      -13.14220
       261     1    14       0.098257      -34.00620        1.18650      -12.47230
       262     1    22      -0.075493      -31.51570        2.28750      -12.49940
       263     1    23       0.113332      -32.65320        3.71510      -11.35950
       264     1    17      -0.141085      -30.74970        3.32130      -13.07350
       265     1    17      -0.141085      -31.20830        0.95220      -12.82620
       266     1    18      -0.147531      -29.68520        3.02390      -13.92950
       267     1    19       0.149357      -30.96710        4.35890      -12.85060
       268     1    18      -0.147531      -30.14420        0.66080      -13.68530
       269     1    19       0.149357      -31.78120        0.13650      -12.40440
       270     1     9      -0.152262      -29.38250        1.69510      -14.23440
       271     1    10       0.148204      -29.09320        3.82450      -14.35590
       272     1    10       0.148204      -29.90700       -0.36860      -13.92230
       273     1    11       0.146393      -28.55910        1.46710      -14.89870
       274     1    20      -0.165018      -36.58440        2.27850      -12.04980
       275     1    21      -0.075368      -35.24900        2.53850      -11.30720
       276     1    14       0.098257      -37.38840        2.59170      -11.36420
       277     1    14       0.098257      -36.59970        2.95800      -12.92440
       278     1    22      -0.075493      -35.26860        3.96930      -10.77900
       279     1    23       0.113332      -35.21060        1.84020      -10.44580
       280     1    17      -0.141085      -35.35020        4.20600       -9.39410
       281     1    17      -0.141085      -35.28660        5.07260      -11.65860
       282     1    18      -0.147531      -35.45230        5.51030       -8.90180
       283     1    19       0.149357      -35.35410        3.38020       -8.69360
       284     1    18      -0.147531      -35.39590        6.37470      -11.16050
       285     1    19       0.149357      -35.23420        4.92750      -12.73000
       286     1     9      -0.152262      -35.48070        6.59290       -9.78370
       287     1    10       0.148204      -35.52390        5.68110       -7.83500
       288     1    10       0.148204      -35.42500        7.21570      -11.84230
       289     1    11       0.146393      -35.57630        7.60040       -9.40010
       290     1    24      -0.167418      -38.38700        0.60780      -12.94410
       291     1    21      -0.075368      -36.88630        0.82640      -12.53200
       292     1    14       0.098257      -38.47000       -0.43260      -13.32980
       293     1    14       0.098257      -39.02880        0.58690      -12.04910
       294     1    22      -0.075493      -36.51830       -0.21390      -11.47980
       295     1    23       0.113332      -36.27040        0.65580      -13.44380