LAMMPS data file Created by LigParGen - (Written by Leela S. Dodda)

      65 atoms
      64 bonds
     120 angles
     150 dihedrals
      38 impropers
 
      65 atom types
      64 bond types
     120 angle types
     150 dihedral types
      38 improper types
 
   -3.105650    46.894350 xlo xhi
   -9.622090    40.377910 ylo yhi
    0.000000    50.000000 zlo zhi

Masses

       1      1.008  
       2     15.999  
       3     28.085  
       4     12.011  
       5     12.011  
       6     15.999  
       7      1.008  
       8      1.008  
       9      1.008  
      10      1.008  
      11      1.008  
      12      1.008  
      13     28.085  
      14     12.011  
      15     12.011  
      16     15.999  
      17      1.008  
      18      1.008  
      19      1.008  
      20      1.008  
      21      1.008  
      22      1.008  
      23     28.085  
      24     12.011  
      25     12.011  
      26     15.999  
      27      1.008  
      28      1.008  
      29      1.008  
      30      1.008  
      31      1.008  
      32      1.008  
      33     28.085  
      34     12.011  
      35     12.011  
      36     15.999  
      37      1.008  
      38      1.008  
      39      1.008  
      40      1.008  
      41      1.008  
      42      1.008  
      43     28.085  
      44     12.011  
      45     12.011  
      46     15.999  
      47      1.008  
      48      1.008  
      49      1.008  
      50      1.008  
      51      1.008  
      52      1.008  
      53     28.085  
      54     12.011  
      55     12.011  
      56     12.011  
      57      1.008  
      58      1.008  
      59      1.008  
      60      1.008  
      61      1.008  
      62      1.008  
      63      1.008  
      64      1.008  
      65      1.008  

Pair Coeffs 

       1      0.000  0.0000000 
       2      0.170  3.1200000 
       3      0.100  4.0000000 
       4      0.066  3.5000000 
       5      0.066  3.5000000 
       6      0.140  2.9000000 
       7      0.030  2.5000000 
       8      0.030  2.5000000 
       9      0.030  2.5000000 
      10      0.030  2.5000000 
      11      0.030  2.5000000 
      12      0.030  2.5000000 
      13      0.100  4.0000000 
      14      0.066  3.5000000 
      15      0.066  3.5000000 
      16      0.140  2.9000000 
      17      0.030  2.5000000 
      18      0.030  2.5000000 
      19      0.030  2.5000000 
      20      0.030  2.5000000 
      21      0.030  2.5000000 
      22      0.030  2.5000000 
      23      0.100  4.0000000 
      24      0.066  3.5000000 
      25      0.066  3.5000000 
      26      0.140  2.9000000 
      27      0.030  2.5000000 
      28      0.030  2.5000000 
      29      0.030  2.5000000 
      30      0.030  2.5000000 
      31      0.030  2.5000000 
      32      0.030  2.5000000 
      33      0.100  4.0000000 
      34      0.066  3.5000000 
      35      0.066  3.5000000 
      36      0.140  2.9000000 
      37      0.030  2.5000000 
      38      0.030  2.5000000 
      39      0.030  2.5000000 
      40      0.030  2.5000000 
      41      0.030  2.5000000 
      42      0.030  2.5000000 
      43      0.100  4.0000000 
      44      0.066  3.5000000 
      45      0.066  3.5000000 
      46      0.140  2.9000000 
      47      0.030  2.5000000 
      48      0.030  2.5000000 
      49      0.030  2.5000000 
      50      0.030  2.5000000 
      51      0.030  2.5000000 
      52      0.030  2.5000000 
      53      0.100  4.0000000 
      54      0.066  3.5000000 
      55      0.066  3.5000000 
      56      0.066  3.5000000 
      57      0.030  2.5000000 
      58      0.030  2.5000000 
      59      0.030  2.5000000 
      60      0.030  2.5000000 
      61      0.030  2.5000000 
      62      0.030  2.5000000 
      63      0.030  2.5000000 
      64      0.030  2.5000000 
      65      0.030  2.5000000 

Bond Coeffs 

       1   553.0000     0.9450 
       2   374.0000     1.6400 
       3   187.0000     1.8600 
       4   187.0000     1.8600 
       5   374.0000     1.6400 
       6   340.0000     1.0900 
       7   340.0000     1.0900 
       8   340.0000     1.0900 
       9   340.0000     1.0900 
      10   340.0000     1.0900 
      11   340.0000     1.0900 
      12   374.0000     1.6400 
      13   187.0000     1.8600 
      14   187.0000     1.8600 
      15   374.0000     1.6400 
      16   340.0000     1.0900 
      17   340.0000     1.0900 
      18   340.0000     1.0900 
      19   340.0000     1.0900 
      20   340.0000     1.0900 
      21   340.0000     1.0900 
      22   374.0000     1.6400 
      23   187.0000     1.8600 
      24   187.0000     1.8600 
      25   374.0000     1.6400 
      26   340.0000     1.0900 
      27   340.0000     1.0900 
      28   340.0000     1.0900 
      29   340.0000     1.0900 
      30   340.0000     1.0900 
      31   340.0000     1.0900 
      32   374.0000     1.6400 
      33   187.0000     1.8600 
      34   187.0000     1.8600 
      35   374.0000     1.6400 
      36   340.0000     1.0900 
      37   340.0000     1.0900 
      38   340.0000     1.0900 
      39   340.0000     1.0900 
      40   340.0000     1.0900 
      41   340.0000     1.0900 
      42   374.0000     1.6400 
      43   187.0000     1.8600 
      44   187.0000     1.8600 
      45   374.0000     1.6400 
      46   340.0000     1.0900 
      47   340.0000     1.0900 
      48   340.0000     1.0900 
      49   340.0000     1.0900 
      50   340.0000     1.0900 
      51   340.0000     1.0900 
      52   374.0000     1.6400 
      53   187.0000     1.8600 
      54   187.0000     1.8600 
      55   187.0000     1.8600 
      56   340.0000     1.0900 
      57   340.0000     1.0900 
      58   340.0000     1.0900 
      59   340.0000     1.0900 
      60   340.0000     1.0900 
      61   340.0000     1.0900 
      62   340.0000     1.0900 
      63   340.0000     1.0900 
      64   340.0000     1.0900 

Angle Coeffs 

       1     46.650    110.930
       2     42.500    109.500
       3     42.500    109.500
       4     42.500    109.500
       5     35.000    109.500
       6     35.000    109.500
       7     35.000    109.500
       8     35.000    109.500
       9     35.000    109.500
      10     35.000    109.500
      11     20.000    145.000
      12     60.000    100.000
      13     60.000    100.000
      14     60.000    110.000
      15     35.000    109.500
      16     35.000    109.500
      17     35.000    109.500
      18     35.000    109.500
      19     35.000    109.500
      20     35.000    109.500
      21     20.000    145.000
      22     60.000    100.000
      23     60.000    100.000
      24     60.000    110.000
      25     35.000    109.500
      26     35.000    109.500
      27     35.000    109.500
      28     35.000    109.500
      29     35.000    109.500
      30     35.000    109.500
      31     20.000    145.000
      32     60.000    100.000
      33     60.000    100.000
      34     60.000    110.000
      35     35.000    109.500
      36     35.000    109.500
      37     35.000    109.500
      38     35.000    109.500
      39     35.000    109.500
      40     35.000    109.500
      41     20.000    145.000
      42     60.000    100.000
      43     60.000    100.000
      44     60.000    110.000
      45     35.000    109.500
      46     35.000    109.500
      47     35.000    109.500
      48     35.000    109.500
      49     35.000    109.500
      50     35.000    109.500
      51     20.000    145.000
      52     60.000    100.000
      53     60.000    100.000
      54     60.000    100.000
      55     35.000    109.500
      56     35.000    109.500
      57     35.000    109.500
      58     35.000    109.500
      59     35.000    109.500
      60     35.000    109.500
      61     35.000    109.500
      62     35.000    109.500
      63     35.000    109.500
      64     33.000    107.800
      65     60.000    110.000
      66     33.000    107.800
      67     33.000    107.800
      68     33.000    107.800
      69     60.000    110.000
      70     33.000    107.800
      71     60.000    110.000
      72     33.000    107.800
      73     33.000    107.800
      74     33.000    107.800
      75     33.000    107.800
      76     33.000    107.800
      77     60.000    100.000
      78     33.000    107.800
      79     33.000    107.800
      80     60.000    110.000
      81     33.000    107.800
      82     33.000    107.800
      83     33.000    107.800
      84     60.000    110.000
      85     60.000    100.000
      86     33.000    107.800
      87     60.000    110.000
      88     33.000    107.800
      89     60.000    100.000
      90     33.000    107.800
      91     33.000    107.800
      92     33.000    107.800
      93     33.000    107.800
      94     60.000    100.000
      95     60.000    110.000
      96     60.000    100.000
      97     33.000    107.800
      98     33.000    107.800
      99     33.000    107.800
     100     33.000    107.800
     101     33.000    107.800
     102     33.000    107.800
     103     60.000    110.000
     104     33.000    107.800
     105     33.000    107.800
     106     33.000    107.800
     107     60.000    100.000
     108     33.000    107.800
     109     33.000    107.800
     110     33.000    107.800
     111     33.000    107.800
     112     60.000    100.000
     113     33.000    107.800
     114     60.000    100.000
     115     33.000    107.800
     116     60.000    100.000
     117     60.000    100.000
     118     33.000    107.800
     119     33.000    107.800
     120     33.000    107.800

Dihedral Coeffs  

       1     -0.750      0.000      0.000      0.000 
       2      0.000      0.000      0.000      0.000 
       3      0.000      0.000      0.000      0.000 
       4      0.000      0.000      0.000      0.000 
       5      0.000      0.000      0.000      0.000 
       6      0.000      0.000      0.000      0.000 
       7      0.000      0.000      0.000      0.000 
       8      0.000      0.000      0.000      0.000 
       9      0.000      0.000      0.000      0.000 
      10      0.000      0.000      0.000      0.000 
      11      0.000      0.000      0.000      0.000 
      12      0.000      0.000      0.000      0.000 
      13      0.000      0.000      0.000      0.000 
      14      0.000      0.000      0.000      0.000 
      15      0.000      0.000      0.000      0.000 
      16      0.000      0.000      0.000      0.000 
      17      0.000      0.000      0.000      0.000 
      18      0.000      0.000      0.000      0.000 
      19      0.000      0.000      0.000      0.000 
      20      0.000      0.000      0.000      0.000 
      21      0.000      0.000      0.000      0.000 
      22      0.000      0.000      0.000      0.000 
      23      0.000      0.000      0.000      0.000 
      24      0.000      0.000      0.000      0.000 
      25      0.000      0.000      0.000      0.000 
      26      0.000      0.000      0.000      0.000 
      27      0.000      0.000      0.180      0.000 
      28      0.000      0.000      0.000      0.000 
      29      0.000      0.000      0.180      0.000 
      30      0.000      0.000      0.000      0.000 
      31      0.000      0.000      0.180      0.000 
      32      0.000      0.000      0.000      0.000 
      33      0.000      0.000      0.000      0.000 
      34      0.000      0.000      0.000      0.000 
      35      0.000      0.000      0.000      0.000 
      36      0.000      0.000      0.180      0.000 
      37      0.000      0.000      0.000      0.000 
      38      0.000      0.000      0.180      0.000 
      39      0.000      0.000      0.180      0.000 
      40      0.000      0.000      0.000      0.000 
      41      0.000      0.000      0.180      0.000 
      42      0.000      0.000      0.000      0.000 
      43      0.000      0.000      0.000      0.000 
      44      0.000      0.000      0.000      0.000 
      45      0.000      0.000      0.000      0.000 
      46      0.000      0.000      0.000      0.000 
      47      0.000      0.000      0.000      0.000 
      48      0.000      0.000      0.180      0.000 
      49      0.000      0.000      0.000      0.000 
      50      0.000      0.000      0.180      0.000 
      51      0.000      0.000      0.000      0.000 
      52      0.000      0.000      0.180      0.000 
      53      0.000      0.000      0.180      0.000 
      54      0.000      0.000      0.000      0.000 
      55      0.000      0.000      0.180      0.000 
      56      0.000      0.000      0.180      0.000 
      57      0.000      0.000      0.180      0.000 
      58      0.000      0.000      0.000      0.000 
      59      0.000      0.000      0.180      0.000 
      60      0.000      0.000      0.000      0.000 
      61      0.000      0.000      0.000      0.000 
      62      0.000      0.000      0.180      0.000 
      63      0.000      0.000      0.000      0.000 
      64      0.000      0.000      0.000      0.000 
      65      0.000      0.000      0.000      0.000 
      66      0.000      0.000      0.180      0.000 
      67      0.000      0.000      0.180      0.000 
      68      0.000      0.000      0.000      0.000 
      69      0.000      0.000      0.000      0.000 
      70      0.000      0.000      0.000      0.000 
      71      0.000      0.000      0.000      0.000 
      72      0.000      0.000      0.000      0.000 
      73      0.000      0.000      0.180      0.000 
      74      0.000      0.000      0.180      0.000 
      75      0.000      0.000      0.180      0.000 
      76      0.000      0.000      0.000      0.000 
      77      0.000      0.000      0.000      0.000 
      78      0.000      0.000      0.000      0.000 
      79      0.000      0.000      0.000      0.000 
      80      0.000      0.000      0.000      0.000 
      81      0.000      0.000      0.180      0.000 
      82      0.000      0.000      0.000      0.000 
      83      0.000      0.000      0.000      0.000 
      84      0.000      0.000      0.180      0.000 
      85      0.000      0.000      0.180      0.000 
      86      0.000      0.000      0.000      0.000 
      87      0.000      0.000      0.180      0.000 
      88      0.000      0.000      0.000      0.000 
      89      0.000      0.000      0.180      0.000 
      90      0.000      0.000      0.000      0.000 
      91      0.000      0.000      0.180      0.000 
      92      0.000      0.000      0.000      0.000 
      93      0.000      0.000      0.180      0.000 
      94      0.000      0.000      0.000      0.000 
      95      0.000      0.000      0.180      0.000 
      96      0.000      0.000      0.180      0.000 
      97      0.000      0.000      0.000      0.000 
      98      0.000      0.000      0.000      0.000 
      99      0.000      0.000      0.000      0.000 
     100      0.000      0.000      0.000      0.000 
     101      0.000      0.000      0.000      0.000 
     102      0.000      0.000      0.180      0.000 
     103      0.000      0.000      0.180      0.000 
     104      0.000      0.000      0.000      0.000 
     105      0.000      0.000      0.000      0.000 
     106      0.000      0.000      0.000      0.000 
     107      0.000      0.000      0.180      0.000 
     108      0.000      0.000      0.180      0.000 
     109      0.000      0.000      0.000      0.000 
     110      0.000      0.000      0.000      0.000 
     111      0.000      0.000      0.000      0.000 
     112      0.000      0.000      0.180      0.000 
     113      0.000      0.000      0.000      0.000 
     114      0.000      0.000      0.180      0.000 
     115      0.000      0.000      0.180      0.000 
     116      0.000      0.000      0.180      0.000 
     117      0.000      0.000      0.180      0.000 
     118     -0.750      0.000      0.000      0.000 
     119      0.000      0.000      0.000      0.000 
     120      0.000      0.000      0.180      0.000 
     121      0.000      0.000      0.000      0.000 
     122      0.000      0.000      0.000      0.000 
     123      0.000      0.000      0.000      0.000 
     124      0.000      0.000      0.000      0.000 
     125      0.000      0.000      0.180      0.000 
     126      0.000      0.000      0.180      0.000 
     127      0.000      0.000      0.000      0.000 
     128      0.000      0.000      0.180      0.000 
     129      0.000      0.000      0.000      0.000 
     130      0.000      0.000      0.000      0.000 
     131      0.000      0.000      0.000      0.000 
     132      0.000      0.000      0.180      0.000 
     133      0.000      0.000      0.000      0.000 
     134      0.000      0.000      0.000      0.000 
     135      0.000      0.000      0.000      0.000 
     136      0.000      0.000      0.000      0.000 
     137      0.000      0.000      0.180      0.000 
     138      0.000      0.000      0.000      0.000 
     139      0.750      0.000      0.000      0.000 
     140      0.000      0.000      0.000      0.000 
     141      0.000      0.000      0.180      0.000 
     142      0.000      0.000      0.000      0.000 
     143      0.000      0.000      0.000      0.000 
     144      0.000      0.000      0.000      0.000 
     145      0.000      0.000      0.000      0.000 
     146      0.000      0.000      0.000      0.000 
     147      0.000      0.000      0.180      0.000 
     148      0.000      0.000      0.000      0.000 
     149      0.000      0.000      0.000      0.000 
     150      0.000      0.000      0.180      0.000 

Improper Coeffs 

       1      0.000      -1       2 
       2      0.000      -1       2 
       3      0.000      -1       2 
       4      0.000      -1       2 
       5      0.000      -1       2 
       6      0.000      -1       2 
       7      0.000      -1       2 
       8      0.000      -1       2 
       9      0.000      -1       2 
      10      0.000      -1       2 
      11      0.000      -1       2 
      12      0.000      -1       2 
      13      0.000      -1       2 
      14      0.000      -1       2 
      15      0.000      -1       2 
      16      0.000      -1       2 
      17      0.000      -1       2 
      18      0.000      -1       2 
      19      0.000      -1       2 
      20      0.000      -1       2 
      21      0.000      -1       2 
      22      0.000      -1       2 
      23      0.000      -1       2 
      24      0.000      -1       2 
      25      0.000      -1       2 
      26      0.000      -1       2 
      27      0.000      -1       2 
      28      0.000      -1       2 
      29      0.000      -1       2 
      30      0.000      -1       2 
      31      0.000      -1       2 
      32      0.000      -1       2 
      33      0.000      -1       2 
      34      0.000      -1       2 
      35      0.000      -1       2 
      36      0.000      -1       2 
      37      0.000      -1       2 
      38      0.000      -1       2 

Atoms 

     1      1      1 0.45520000    1.000  1.00000  0.00000
     2      1      2 -0.95330000    0.052  1.00000  0.00000
     3      1      3 1.89380000   -0.739  1.00000  1.43197
     4      1      4 -0.73810000   -0.543  2.68910  2.25208
     5      1      5 -0.69640000   -2.549  0.54042  1.16795
     6      1      6 -1.12730000   -0.026 -0.12551  2.37630
     7      1      7 0.09820000   -0.982  3.48558  1.63165
     8      1      8 0.09820000    0.515  2.94247  2.41309
     9      1      9 0.09820000   -1.045  2.71845  3.23160
    10      1     10 0.10280000   -2.650 -0.45926  0.71809
    11      1     11 0.10280000   -3.049  1.25548  0.49541
    12      1     12 0.10280000   -3.106  0.53269  2.11693
    13      1     13 1.94260000    0.041 -0.84217  3.84244
    14      1     14 -0.70240000    0.795  0.34907  5.09726
    15      1     15 -0.73110000   -1.696 -1.38886  4.34099
    16      1     16 -1.09770000    0.994 -2.16003  3.69361
    17      1     17 0.09910000    0.170  1.24466  5.22876
    18      1     18 0.09910000    1.795  0.68586  4.78453
    19      1     19 0.09910000    0.901 -0.12947  6.08330
    20      1     20 0.09830000   -2.150 -2.04222  3.58158
    21      1     21 0.09830000   -2.365 -0.52509  4.47495
    22      1     22 0.09830000   -1.680 -1.94719  5.28860
    23      1     23 1.94050000    1.367 -3.41581  2.71510
    24      1     24 -0.73850000   -0.231 -4.13087  2.00784
    25      1     25 -0.69510000    2.550 -2.82880  1.36837
    26      1     26 -1.09540000    2.089 -4.54584  3.64808
    27      1     27 0.09790000   -0.760 -3.39088  1.38807
    28      1     28 0.09790000   -0.922 -4.44829  2.80275
    29      1     29 0.09790000   -0.030 -5.00869  1.37428
    30      1     30 0.09960000    3.470 -2.40426  1.79851
    31      1     31 0.09960000    2.089 -2.04959  0.74193
    32      1     32 0.09960000    2.848 -3.65609  0.70679
    33      1     33 1.93660000    1.858 -5.47969  4.97091
    34      1     34 -0.73400000    0.717 -4.56674  6.16644
    35      1     35 -0.69600000    1.145 -7.14585  4.44557
    36      1     36 -1.09680000    3.320 -5.69150  5.67079
    37      1     37 0.09770000    1.108 -3.56963  6.42222
    38      1     38 0.09770000    0.595 -5.12565  7.10662
    39      1     39 0.09770000   -0.284 -4.42495  5.73199
    40      1     40 0.09850000    1.814 -7.66886  3.74495
    41      1     41 0.09850000    0.172 -7.02609  3.94758
    42      1     42 0.09850000    0.998 -7.80563  5.31430
    43      1     43 1.93490000    4.628 -4.89515  6.24395
    44      1     44 -0.72470000    5.277 -3.74051  4.89868
    45      1     45 -0.70090000    4.148 -3.94621  7.80526
    46      1     46 -1.07390000    5.762 -6.01908  6.59957
    47      1     47 0.09810000    4.536 -2.96399  4.65337
    48      1     48 0.09810000    5.502 -4.28271  3.96909
    49      1     49 0.09810000    6.198 -3.23017  5.21870
    50      1     50 0.09760000    3.720 -4.61177  8.56997
    51      1     51 0.09760000    3.401 -3.16997  7.58587
    52      1     52 0.09760000    5.024 -3.45003  8.25123
    53      1     53 1.66500000    6.527 -7.35813  6.03849
    54      1     54 -0.67230000    5.222 -8.69766  5.74620
    55      1     55 -0.67850000    7.383 -6.90517  4.41273
    56      1     56 -0.64950000    7.786 -7.90985  7.33816
    57      1     57 0.09730000    5.683 -9.62209  5.36618
    58      1     58 0.09730000    4.472 -8.37588  5.00623
    59      1     59 0.09730000    4.682 -8.95462  6.66972
    60      1     60 0.09610000    6.658 -6.61573  3.63734
    61      1     61 0.09610000    7.958 -7.75916  4.02081
    62      1     62 0.09610000    8.083 -6.06447  4.53592
    63      1     63 0.09650000    8.546 -7.13450  7.52505
    64      1     64 0.09650000    8.318 -8.81714  7.01321
    65      1     65 0.09650000    7.306 -8.13451  8.30226

Bonds 

     1      1      2      1
     2      2      3      2
     3      3      4      3
     4      4      5      3
     5      5      6      3
     6      6      7      4
     7      7      8      4
     8      8      9      4
     9      9     10      5
    10     10     11      5
    11     11     12      5
    12     12     13      6
    13     13     14     13
    14     14     15     13
    15     15     16     13
    16     16     17     14
    17     17     18     14
    18     18     19     14
    19     19     20     15
    20     20     21     15
    21     21     22     15
    22     22     23     16
    23     23     24     23
    24     24     25     23
    25     25     26     23
    26     26     27     24
    27     27     28     24
    28     28     29     24
    29     29     30     25
    30     30     31     25
    31     31     32     25
    32     32     33     26
    33     33     34     33
    34     34     35     33
    35     35     36     33
    36     36     37     34
    37     37     38     34
    38     38     39     34
    39     39     40     35
    40     40     41     35
    41     41     42     35
    42     42     43     36
    43     43     44     43
    44     44     45     43
    45     45     46     43
    46     46     47     44
    47     47     48     44
    48     48     49     44
    49     49     50     45
    50     50     51     45
    51     51     52     45
    52     52     53     46
    53     53     54     53
    54     54     55     53
    55     55     56     53
    56     56     57     54
    57     57     58     54
    58     58     59     54
    59     59     60     55
    60     60     61     55
    61     61     62     55
    62     62     63     56
    63     63     64     56
    64     64     65     56

Angles 

     1      1      1      2      3
     2      2      2      3      4
     3      3      2      3      5
     4      4      2      3      6
     5      5      3      4      7
     6      6      3      4      8
     7      7      3      4      9
     8      8      3      5     10
     9      9      3      5     11
    10     10      3      5     12
    11     11      3      6     13
    12     12      6     13     14
    13     13      6     13     15
    14     14      6     13     16
    15     15     13     14     17
    16     16     13     14     18
    17     17     13     14     19
    18     18     13     15     20
    19     19     13     15     21
    20     20     13     15     22
    21     21     13     16     23
    22     22     16     23     24
    23     23     16     23     25
    24     24     16     23     26
    25     25     23     24     27
    26     26     23     24     28
    27     27     23     24     29
    28     28     23     25     30
    29     29     23     25     31
    30     30     23     25     32
    31     31     23     26     33
    32     32     26     33     34
    33     33     26     33     35
    34     34     26     33     36
    35     35     33     34     37
    36     36     33     34     38
    37     37     33     34     39
    38     38     33     35     40
    39     39     33     35     41
    40     40     33     35     42
    41     41     33     36     43
    42     42     36     43     44
    43     43     36     43     45
    44     44     36     43     46
    45     45     43     44     47
    46     46     43     44     48
    47     47     43     44     49
    48     48     43     45     50
    49     49     43     45     51
    50     50     43     45     52
    51     51     43     46     53
    52     52     46     53     54
    53     53     46     53     55
    54     54     46     53     56
    55     55     53     54     57
    56     56     53     54     58
    57     57     53     54     59
    58     58     53     55     60
    59     59     53     55     61
    60     60     53     55     62
    61     61     53     56     63
    62     62     53     56     64
    63     63     53     56     65
    64     64     58     54     59
    65     65     55     53     56
    66     66     47     44     48
    67     67      7      4      8
    68     68     28     24     29
    69     69     14     13     15
    70     70     27     24     29
    71     71     54     53     55
    72     72     27     24     28
    73     73     63     56     64
    74     74      8      4      9
    75     75     30     25     32
    76     76     37     34     38
    77     77     25     23     26
    78     78     61     55     62
    79     79     51     45     52
    80     80     44     43     45
    81     81     50     45     52
    82     82     50     45     51
    83     83     57     54     59
    84     84     34     33     35
    85     85     15     13     16
    86     86     17     14     18
    87     87      4      3      5
    88     88     60     55     62
    89     89     45     43     46
    90     90     18     14     19
    91     91     40     35     42
    92     92     20     15     22
    93     93     64     56     65
    94     94      5      3      6
    95     95     24     23     25
    96     96     35     33     36
    97     97     38     34     39
    98     98     63     56     65
    99     99     57     54     58
   100    100     30     25     31
   101    101      7      4      9
   102    102     10      5     12
   103    103     54     53     56
   104    104     47     44     49
   105    105     60     55     61
   106    106     11      5     12
   107    107     14     13     16
   108    108     31     25     32
   109    109     21     15     22
   110    110     41     35     42
   111    111     17     14     19
   112    112     24     23     26
   113    113     37     34     39
   114    114     44     43     46
   115    115     48     44     49
   116    116     34     33     36
   117    117      4      3      6
   118    118     20     15     21
   119    119     10      5     11
   120    120     40     35     41

Dihedrals

     1      1      4      3      2      1 
     2      2      7      4      3      2 
     3      3     10      5      3      2 
     4      4     13      6      3      2 
     5      5     14     13      6      3 
     6      6     17     14     13      6 
     7      7     20     15     13      6 
     8      8     23     16     13      6 
     9      9     24     23     16     13 
    10     10     27     24     23     16 
    11     11     30     25     23     16 
    12     12     33     26     23     16 
    13     13     34     33     26     23 
    14     14     37     34     33     26 
    15     15     40     35     33     26 
    16     16     43     36     33     26 
    17     17     44     43     36     33 
    18     18     47     44     43     36 
    19     19     50     45     43     36 
    20     20     53     46     43     36 