LAMMPS data file Generated by MacroMapFF

      3313 atoms
      3486 bonds
      6244 angles
      9638 dihedrals
      1014 impropers

        51 atom types
        18 bond types
        31 angle types
        26 dihedral types
         3 improper types

-27.2851     322.3545     xlo xhi
-57.2804     21.5286      ylo yhi
-19.0718     190.4334     zlo zhi

Masses

         1 1.008       
         2 14.007      
         3 12.011      
         4 1.008       
         5 12.011      
         6 1.008       
         7 12.011      
         8 12.011      
         9 12.011      
        10 12.011      
        11 12.011      
        12 1.008       
        13 12.011      
        14 12.011      
        15 14.007      
        16 14.007      
        17 0.0         
        18 1.008       
        19 15.999      
        20 12.011      
        21 1.008       
        22 12.011      
        23 12.011      
        24 1.008       
        25 1.008       
        26 12.011      
        27 12.011      
        28 12.011      
        29 12.011      
        30 1.008       
        31 12.011      
        32 28.085      
        33 12.011      
        34 12.011      
        35 12.011      
        36 15.999      
        37 12.011      
        38 28.085      
        39 12.011      
        40 28.085      
        41 1.008       
        42 12.011      
        43 1.008       
        44 28.085      
        45 12.011      
        46 15.999      
        47 12.011      
        48 15.999      
        49 12.011      
        50 1.008       
        51 15.999      

Pair Coeffs

         1 0.03         2.5         
         2 0.17         3.25        
         3 0.066        3.5         
         4 0.03         2.5         
         5 0.066        3.5         
         6 0.03         2.5         
         7 0.066        3.5         
         8 0.066        3.5         
         9 0.07         3.55        
        10 0.066        3.5         
        11 0.07         3.55        
        12 0.03         2.5         
        13 0.07         3.55        
        14 0.066        3.5         
        15 0.17         3.25        
        16 0.17         3.25        
        17 0.0          0.0         
        18 0.03         2.42        
        19 0.14         2.9         
        20 0.07         3.55        
        21 0.03         2.5         
        22 0.07         3.55        
        23 0.066        3.5         
        24 0.03         2.5         
        25 0.03         2.5         
        26 0.07         3.55        
        27 0.066        3.5         
        28 0.066        3.5         
        29 0.066        3.5         
        30 0.03         2.42        
        31 0.066        3.5         
        32 0.1          4.0         
        33 0.066        3.5         
        34 0.07         3.55        
        35 0.066        3.5         
        36 0.21         2.96        
        37 0.066        3.5         
        38 0.1          4.0         
        39 0.066        3.5         
        40 0.1          4.0         
        41 0.03         2.5         
        42 0.07         3.55        
        43 0.03         2.5         
        44 0.1          4.0         
        45 0.066        3.5         
        46 0.14         2.9         
        47 0.066        3.5         
        48 0.14         2.9         
        49 0.066        3.5         
        50 0.03         2.5         
        51 0.14         2.9         

Bond Coeffs

         1 187.0        1.8599999999999999
         2 340.0        1.0900000000000003
         3 374.0        1.6400000000000001
         4 268.0        1.529       
         5 317.0        1.51        
         6 469.0        1.4         
         7 367.0        1.08        
         8 337.0        1.475       
         9 400.0        1.349       
        10 400.0        1.28        
        11 410.0        1.394       
        12 317.0        1.504       
        13 520.0        1.37        
        14 427.0        1.381       
        15 320.0        1.41        
        16 214.0        1.327       
        17 317.0        1.522       
        18 570.0        1.229       

Angle Coeffs

         1 60.0         110.0       
         2 60.0         100.0       
         3 35.0         109.5       
         4 33.0         107.79999999999998
         5 20.0         145.0       
         6 60.0         112.0       
         7 37.5         110.7       
         8 58.35        112.7       
         9 63.0         114.0       
        10 70.0         120.0       
        11 63.0         120.0       
        12 35.0         120.0       
        13 51.65        110.58      
        14 80.0         111.2       
        15 70.0         118.4       
        16 63.0         112.4       
        17 56.0         113.1       
        18 59.41        111.36      
        19 70.0         117.0       
        20 70.0         124.5       
        21 70.0         111.0       
        22 70.0         130.7       
        23 50.0         109.5       
        24 70.0         106.3       
        25 35.0         130.7       
        26 35.0         121.6       
        27 83.0         116.9       
        28 81.0         111.4       
        29 83.0         123.4       
        30 80.0         120.4       
        31 63.0         111.1       

Dihedral Coeffs

           1         0.0         0.0        0.18         0.0
           2         0.0         0.0         0.0         0.0
           3         1.0         0.0         0.0         0.0
           4         0.0         0.0       0.462         0.0
           5         1.3        -0.2         0.2         0.0
           6         0.0         0.0         0.3         0.0
           7         0.0        7.25         0.0         0.0
           8       2.392      -0.674        0.55         0.0
           9      -1.013      -0.709       0.473         0.0
          10         1.0       -0.35         0.0         0.0
          11         0.0        2.17         0.0         0.0
          12         0.0        10.0         0.0         0.0
          13       1.711        -0.5       0.663         0.0
          14         0.0       10.75         0.0         0.0
          15         0.0         5.0         0.0         0.0
          16       -1.22      -0.126       0.422         0.0
          17         0.0         0.0       0.198         0.0
          18       4.669       5.124         0.0         0.0
          19         0.0       5.124         0.0         0.0
          20         0.0         0.0      -0.553         0.0
          21         0.0         0.0       0.132         0.0
          22       -0.55         0.0         1.0         0.0
          23         0.0         0.0        -0.1         0.0
          24         0.0         0.0        0.45         0.0
          25       -2.06      -0.313       0.315         0.0
          26         5.2        -0.5         0.0         0.0

Improper Coeffs

           1         2.5        -1.0         2.0
           2         0.0        -1.0         2.0
           3        10.5        -1.0         2.0

Atoms

         1     1    44          0.0      -6.5321       2.5263       -0.064
         2     1     8          0.0      -7.9363       3.3337       0.9297
         3     1     8          0.0      -5.9864       0.9664       0.8656
         4     1    50          0.0      -8.6865       2.5749       1.2027
         5     1    50          0.0      -8.4527       4.1081       0.3425
         6     1    50          0.0      -7.5612       3.7897       1.8581
         7     1    50          0.0      -5.4822       1.2174       1.8049
         8     1    50          0.0      -5.2715       0.3822       0.2683
         9     1    50          0.0      -6.8369       0.3153       1.1114
        10     1    32          0.0       -8.019       1.4382      -2.7199
        11     1    37          0.0      -6.9524      -0.0012      -3.3397
        12     1    37          0.0      -8.2644       2.7246      -4.0811
        13     1    50          0.0       -6.973      -0.0922       -4.436
        14     1    50          0.0      -7.3124      -0.9483      -2.9094
        15     1    50          0.0      -5.9007       0.1329      -3.0382
        16     1    50          0.0      -8.6243       2.2647      -5.0139
        17     1    50          0.0      -7.3322       3.2663      -4.2985
        18     1    50          0.0      -9.0112       3.4655      -3.7584
        19     1    19          0.0      -7.1674       2.1086      -1.5095
        20     1    32          0.0     -11.1131       0.9817      -2.2004
        21     1    37          0.0     -11.7624       2.6968       -1.694
        22     1    37          0.0     -11.7769       -0.359      -1.0334
        23     1    50          0.0     -12.8604       2.7162      -1.6145
        24     1    50          0.0     -11.4614       3.4597      -2.4275
        25     1    50          0.0       -11.34       2.9931      -0.7199
        26     1    50          0.0     -11.6093      -1.3627       -1.451
        27     1    50          0.0     -12.8542      -0.2373       -0.856
        28     1    50          0.0     -11.2686      -0.3165      -0.0585
        29     1    48          0.0      -9.4768       0.9334      -2.1505
        30     1    32          0.0     -11.4283      -0.5114      -4.9671
        31     1    37          0.0     -12.3604       -2.078      -4.4354
        32     1    37          0.0      -9.6122       -0.915       -5.356
        33     1    50          0.0     -11.8516      -2.5702      -3.5925
        34     1    50          0.0     -12.4371      -2.8004      -5.2628
        35     1    50          0.0     -13.3881      -1.8378      -4.1192
        36     1    50          0.0      -9.5549      -1.6712       -6.155
        37     1    50          0.0      -9.1115      -1.3258      -4.4674
        38     1    50          0.0      -9.0502      -0.0341         -5.7
        39     1    48          0.0     -11.5469       0.6011      -3.7452
        40     1    32          0.0      -13.297       0.1787      -7.4761
        41     1    37          0.0     -12.8086      -0.8905      -8.9757
        42     1    37          0.0     -13.6166       1.9257       -8.159
        43     1    50          0.0     -13.4983      -0.7713      -9.8279
        44     1    50          0.0     -12.7883      -1.9528      -8.6876
        45     1    50          0.0     -11.7896      -0.6237      -9.3018
        46     1    50          0.0     -14.3083       1.9296       -9.013
        47     1    50          0.0     -12.6657        2.378      -8.4825
        48     1    50          0.0     -14.0262       2.5684      -7.3637
        49     1    48          0.0     -12.1359       0.1445       -6.304
        50     1    32          0.0     -16.2985      -0.7092      -7.4614
        51     1    37          0.0     -16.9687       0.8615      -8.3018
        52     1    37          0.0     -17.6159      -1.2694      -6.2103
        53     1    50          0.0     -18.0264       0.7627      -8.5881
        54     1    50          0.0     -16.3954       1.0933      -9.2108
        55     1    50          0.0     -16.8636       1.7082      -7.6028
        56     1    50          0.0     -17.3074      -2.1965      -5.7035
        57     1    50          0.0     -18.5784      -1.4596      -6.7082
        58     1    50          0.0     -17.7737      -0.5042      -5.4359
        59     1    48          0.0     -14.7523      -0.4032      -6.9044
        60     1    40          0.0     -16.5623      -2.8043      -9.9359
        61     1     8          0.0     -18.1084      -3.8883      -9.7106
        62     1     8          0.0     -15.0091      -3.8789     -10.1991
        63     1    50          0.0     -17.9288      -4.6391      -8.9244
        64     1    50          0.0     -18.3818      -4.4183     -10.6355
        65     1    50          0.0     -18.9713      -3.2806      -9.3977
        66     1    50          0.0     -15.0708      -4.4406     -11.1435
        67     1    50          0.0     -14.8914      -4.6107      -9.3858
        68     1    50          0.0     -14.0953      -3.2666     -10.2299
        69     1    19          0.0     -16.2211      -1.8775      -8.6133
        70     1    38          0.0       0.3022        3.094       4.8151
        71     1    51          0.0       0.4356       1.5229       5.3225
        72     1    38          0.0       0.5954       0.0243       4.6366
        73     1    51          0.0      -0.7766      -0.8494       4.7947
        74     1    38          0.0       -2.245      -0.6937       4.1093
        75     1    51          0.0      -2.4927       0.9063       4.0157
        76     1    38          0.0      -2.6151       2.5125       4.1726
        77     1    51          0.0      -1.3175       3.1794       4.9145
        78     1    38          0.0        0.707       2.9102       1.5421
        79     1    51          0.0       1.4075       1.4459       1.1192
        80     1    38          0.0       0.9315      -0.0999       1.4334
        81     1    38          0.0      -2.0717      -0.6155       0.9635
        82     1    51          0.0       -0.506      -0.3501         0.66
        83     1    51          0.0       -2.778       0.8757       1.0057
        84     1    38          0.0      -2.4063        2.492       1.0202
        85     1    51          0.0      -0.7882       2.8183       0.8192
        86     1    51          0.0       0.5988       3.0695       3.1859
        87     1    51          0.0      -2.6197       3.0173       2.5867
        88     1    51          0.0      -2.1252      -1.2029       2.5297
        89     1    51          0.0       0.7579       0.1645       3.0303
        90     1     3          0.0       -3.568       3.1295      -0.4244
        91     1     1          0.0      -3.6218       2.3375      -1.1939
        92     1     1          0.0      -2.9741       3.9382      -0.8828
        93     1     8          0.0     -16.8601       -1.662     -11.4291
        94     1    50          0.0     -17.0388      -2.2373     -12.3517
        95     1    50          0.0     -15.9894      -1.0121     -11.6061
        96     1    50          0.0     -17.7384      -1.0129     -11.2825
        97     1    44          0.0      -7.0981       2.1355       5.6429
        98     1     8          0.0      -8.2623       0.9572       4.7233
        99     1     8          0.0      -7.5886        3.961       5.4648
       100     1    50          0.0      -7.9611       -0.089       4.8905
       101     1    50          0.0      -8.2297       1.1338       3.6364
       102     1    50          0.0      -9.3033       1.0808       5.0528
       103     1    50          0.0      -8.6001       4.1516       5.8496
       104     1    50          0.0      -7.5694       4.2618       4.4058
       105     1    50          0.0      -6.8895       4.6143       6.0104
       106     1    49          0.0      -5.4013       1.9448       4.7476
       107     1    12          0.0      -5.5897       2.1736       3.6863
       108     1    12          0.0      -5.1341       0.8767       4.7881
       109     1    32          0.0      -8.2257       1.6801        8.563
       110     1    37          0.0      -9.2588       3.2838       8.5234
       111     1    37          0.0      -7.3501       1.5419      10.2301
       112     1    50          0.0      -9.8571        3.353       9.4406
       113     1    50          0.0      -9.9416       3.2862       7.6594
       114     1    50          0.0      -8.6213       4.1791       8.4775
       115     1    50          0.0      -6.4607       2.1896      10.2536
       116     1    50          0.0      -7.0092       0.5053      10.3885
       117     1    50          0.0      -8.0119       1.8227      11.0635
       118     1    19          0.0      -7.1848       1.7861       7.2699
       119     1    32          0.0     -10.0515      -0.9614       7.9956
       120     1    37          0.0      -9.3374      -2.6284       8.5339
       121     1    37          0.0     -10.6492      -1.1362       6.1938
       122     1    50          0.0      -9.1785       -2.652       9.6227
       123     1    50          0.0       -8.366      -2.8206       8.0543
       124     1    50          0.0     -10.0184      -3.4545        8.276
       125     1    50          0.0      -9.8238      -1.4184       5.5233
       126     1    50          0.0     -11.0861      -0.2028       5.8139
       127     1    50          0.0     -11.4191      -1.9188       6.1037
       128     1    48          0.0      -9.1704       0.3669       8.3539
       129     1    32          0.0     -12.6664       0.3775       8.7654
       130     1    37          0.0     -13.6656       0.0692       7.1998
       131     1    37          0.0     -12.4719       2.2516       9.0018
       132     1    50          0.0     -13.7904      -1.0078        7.009
       133     1    50          0.0     -13.1908       0.5123       6.3122
       134     1    50          0.0      -14.668       0.5124       7.2944
       135     1    50          0.0     -13.4315       2.7406       9.2339
       136     1    50          0.0     -12.0759       2.7144       8.0873
       137     1    50          0.0     -11.7791       2.4541       9.8307
       138     1    48          0.0     -11.4209      -0.6982       8.8421
       139     1    32          0.0     -14.8541       0.0184      11.0263
       140     1    37          0.0       -15.42       1.7466      11.6094
       141     1    37          0.0     -14.7338      -1.0024       12.624
       142     1    50          0.0      -16.322       1.6962      12.2382
       143     1    50          0.0     -15.6448       2.3791      10.7362
       144     1    50          0.0     -14.6292       2.2442      12.1917
       145     1    50          0.0     -13.9305      -0.5868      13.2533
       146     1    50          0.0      -14.459      -2.0447      12.4048
       147     1    50          0.0     -15.6692      -0.9903      13.2064
       148     1    48          0.0     -13.5279       0.0055      10.0945
       149     1    32          0.0     -17.3866      -1.7222      10.3864
       150     1    37          0.0     -17.2199      -3.1267      11.6492
       151     1    37          0.0     -17.8089      -2.4803       8.6991
       152     1    50          0.0      -16.437      -3.8273      11.3211
       153     1    50          0.0     -18.1577      -3.6921      11.7638
       154     1    50          0.0     -16.9355      -2.7496       12.641
       155     1    50          0.0     -17.0359      -3.1985       8.3904
       156     1    50          0.0     -17.8612         -1.7       7.9251
       157     1    50          0.0     -18.7725      -3.0075        8.722
       158     1    48          0.0     -16.0693      -0.7306       10.165
       159     1    40          0.0     -20.2787      -0.6732       11.211
       160     1     8          0.0      -21.224      -0.1833       9.6282
       161     1     8          0.0     -20.4669       0.6812      12.5095
       162     1    50          0.0     -21.1756      -0.9799       8.8706
       163     1    50          0.0     -20.7963         0.73        9.187
       164     1    50          0.0     -22.2851       0.0137       9.8543
       165     1    50          0.0     -21.5323       0.8485      12.7272
       166     1    50          0.0     -20.0541        1.645      12.1717
       167     1    50          0.0     -19.9845       0.4302      13.4677
       168     1    19          0.0     -18.6505      -0.8035      10.9008
       169     1     8          0.0     -20.9961      -2.3115      11.8639
       170     1    50          0.0     -20.8456      -3.1121      11.1211
       171     1    50          0.0     -22.0738      -2.2271      12.0701
       172     1    50          0.0     -20.4967      -2.6164      12.7967
       173     1    44          0.0       -2.138      -4.1824      -2.0884
       174     1     8          0.0      -2.0425      -5.5115      -0.7268
       175     1     8          0.0      -0.6796      -4.4243      -3.2914
       176     1    50          0.0      -1.0552       -5.518      -0.2441
       177     1    50          0.0      -2.2402       -6.515      -1.1395
       178     1    50          0.0       -2.791      -5.3214       0.0563
       179     1    50          0.0      -0.5757      -5.4874      -3.5621
       180     1    50          0.0       0.2743      -4.0898      -2.8564
       181     1    50          0.0      -0.8324      -3.8633      -4.2268
       182     1     3          0.0       -2.902       -1.942      -0.1945
       183     1     1          0.0      -3.8465      -1.5535      -0.6136
       184     1     1          0.0      -3.1957      -2.7962       0.4385
       185     1    32          0.0      -4.6122      -4.5702      -4.1452
       186     1    37          0.0      -3.7269      -4.0211      -5.7307
       187     1    37          0.0      -6.0224      -3.3875      -3.6792
       188     1    50          0.0      -3.4675      -2.9532      -5.7035
       189     1    50          0.0      -4.3542      -4.1954      -6.6189
       190     1    50          0.0       -2.789      -4.5823      -5.8649
       191     1    50          0.0      -6.7904      -3.3749      -4.4694
       192     1    50          0.0      -5.6152      -2.3715      -3.5778
       193     1    50          0.0      -6.4945      -3.6641      -2.7247
       194     1    19          0.0      -3.4958      -4.6053      -2.9335
       195     1    32          0.0      -6.6825      -6.9806      -4.1086
       196     1    37          0.0      -8.3006       -5.968      -4.1905
       197     1    37          0.0      -6.5073      -7.6567       -2.347
       198     1    50          0.0      -9.1823      -6.6163      -4.0814
       199     1    50          0.0      -8.3854      -5.4496      -5.1584
       200     1    50          0.0      -8.3435      -5.2163      -3.3866
       201     1    50          0.0      -5.8056      -8.5055      -2.3257
       202     1    50          0.0      -7.4694      -7.9975      -1.9404
       203     1    50          0.0      -6.1065      -6.8783      -1.6845
       204     1    48          0.0      -5.3333      -6.0466      -4.3882
       205     1    32          0.0      -7.6237      -9.3465      -5.9898
       206     1    37          0.0      -9.3705      -9.4786      -5.2158
       207     1    37          0.0      -6.8747     -11.0823      -5.9896
       208     1    50          0.0       -9.298      -9.7728      -4.1562
       209     1    50          0.0     -10.0045     -10.2064      -5.7433
       210     1    50          0.0      -9.8735      -8.4989      -5.2357
       211     1    50          0.0      -5.9187     -11.1022      -6.5365
       212     1    50          0.0      -7.5479     -11.8269      -6.4411
       213     1    50          0.0      -6.6649     -11.3717      -4.9462
       214     1    48          0.0      -6.7101      -8.2374       -5.185
       215     1    32          0.0       -8.625      -9.1516      -8.9228
       216     1    37          0.0      -7.7218      -10.724      -9.4577
       217     1    37          0.0      -8.5958      -7.9797     -10.4147
       218     1    50          0.0      -7.6705     -10.8004     -10.5541
       219     1    50          0.0      -8.2223     -11.6328      -9.0891
       220     1    50          0.0      -6.6899     -10.7144      -9.0699
       221     1    50          0.0      -8.9805       -8.476     -11.3198
       222     1    50          0.0      -7.5727      -7.6297     -10.6165
       223     1    50          0.0      -9.2219      -7.0949     -10.2218
       224     1    48          0.0      -7.8608      -8.8173      -7.5341
       225     1    32          0.0      -11.477     -10.2766      -9.2299
       226     1    37          0.0     -13.0201      -9.2655      -9.6811
       227     1    37          0.0     -11.9678     -11.8015      -8.2076
       228     1    50          0.0      -13.735       -9.843     -10.2853
       229     1    50          0.0      -12.731      -8.3631     -10.2419
       230     1    50          0.0     -13.5325      -8.9268      -8.7668
       231     1    50          0.0     -11.0746     -12.3914      -7.9509
       232     1    50          0.0     -12.6784     -12.4507      -8.7374
       233     1    50          0.0     -12.4291      -11.485      -7.2584
       234     1    48          0.0     -10.2046      -9.5074      -8.5526
       235     1    40          0.0      -11.072     -11.6357     -12.0886
       236     1     8          0.0     -11.7805     -13.3682     -11.7565
       237     1     8          0.0      -9.4388     -11.8621     -13.0354
       238     1    50          0.0     -11.0995     -13.9526     -11.1184
       239     1    50          0.0     -11.9316     -13.9287      -12.693
       240     1    50          0.0     -12.7489     -13.3057     -11.2374
       241     1    50          0.0      -9.5804     -12.4237     -13.9716
       242     1    50          0.0      -8.7096     -12.4061      -12.415
       243     1    50          0.0       -8.995      -10.885     -13.2814
       244     1    19          0.0     -10.8548     -10.8163     -10.6661
       245     1     8          0.0     -12.3032     -10.7408     -13.2273
       246     1    50          0.0     -12.6063      -11.377     -14.0718
       247     1    50          0.0     -11.8607      -9.8207     -13.6395
       248     1    50          0.0     -13.2097     -10.4509     -12.6748
       249     1    44          0.0      -3.9762      -4.3098       4.0722
       250     1     8          0.0      -3.8978      -5.2814       5.7143
       251     1     8          0.0      -2.3706      -4.5602       3.1021
       252     1    50          0.0      -2.9538      -5.0899       6.2494
       253     1    50          0.0      -3.9726      -6.3651       5.5191
       254     1    50          0.0      -4.7299      -5.0031       6.3799
       255     1    50          0.0      -2.4225      -4.0723       2.1195
       256     1    50          0.0      -2.1496      -5.6255       2.9408
       257     1    50          0.0       -1.517       -4.125       3.6354
       258     1     3          0.0      -3.5486      -1.5995       5.1602
       259     1     1          0.0       -4.109       -0.853       5.7479
       260     1     1          0.0      -3.0231      -2.2205       5.9039
       261     1    32          0.0      -6.5666      -4.9295       2.3075
       262     1    37          0.0      -6.1395      -5.5281       0.5693
       263     1    37          0.0      -7.1175      -3.1035       2.2275
       264     1    50          0.0      -5.2711      -4.9692       0.1874
       265     1    50          0.0      -6.9784       -5.372      -0.1259
       266     1    50          0.0      -5.8837         -6.6       0.5714
       267     1    50          0.0      -8.0227      -2.9959       1.6104
       268     1    50          0.0      -6.3287       -2.479        1.781
       269     1    50          0.0      -7.3349      -2.7131       3.2348
       270     1    19          0.0      -5.2295      -5.0143       3.2674
       271     1    32          0.0      -8.9365      -6.7784       3.5497
       272     1    37          0.0     -10.2938       -5.586       4.1694
       273     1    37          0.0      -8.2944       -7.823       5.0066
       274     1    50          0.0     -11.1115      -6.1267       4.6704
       275     1    50          0.0     -10.7241      -5.0299       3.3217
       276     1    50          0.0      -9.8813      -4.8443       4.8732
       277     1    50          0.0      -7.4076      -8.4006       4.7039
       278     1    50          0.0      -9.0467      -8.5091        5.421
       279     1    50          0.0      -7.9609      -7.1647        5.824
       280     1    48          0.0      -7.7616      -5.8723       2.8894
       281     1    32          0.0     -10.0442      -9.3974        2.232
       282     1    37          0.0     -11.2467      -9.8576       3.6104
       283     1    37          0.0       -8.529     -10.5339       2.3308
       284     1    50          0.0     -10.8457      -9.6112       4.6028
       285     1    50          0.0     -11.4488     -10.9399       3.5928
       286     1    50          0.0     -12.2135      -9.3442       3.5016
       287     1    50          0.0      -7.7669     -10.2371       1.5926
       288     1    50          0.0      -8.8077     -11.5794       2.1357
       289     1    50          0.0       -8.059     -10.4778       3.3243
       290     1    48          0.0      -9.5524      -7.8283       2.4211
       291     1    32          0.0     -11.4942     -10.5809      -0.3539
       292     1    37          0.0     -10.4992      -12.111      -0.9408
       293     1    37          0.0     -12.1474      -9.5738      -1.8281
       294     1    50          0.0     -11.1348     -12.9225      -1.3268
       295     1    50          0.0      -9.9134     -12.5102      -0.0986
       296     1    50          0.0      -9.7851     -11.8306      -1.7298
       297     1    50          0.0     -12.7916     -10.1711      -2.4879
       298     1    50          0.0     -11.3115      -9.1763      -2.4243
       299     1    50          0.0     -12.7283      -8.7109      -1.4684
       300     1    48          0.0     -10.7527      -9.6206       0.7524
       301     1    32          0.0     -14.4425     -11.2561        0.654
       302     1    37          0.0     -14.9982      -9.6378       1.4694
       303     1    37          0.0     -14.8235     -12.7788       1.7185
       304     1    50          0.0     -15.9362      -9.7807       2.0258