LAMMPS data file Generated by mappingff

      3313 atoms
      3486 bonds
      6245 angles
      9652 dihedrals
      2973 impropers

        37 atom types
        18 bond types
        31 angle types
        26 dihedral types
         3 improper types

  -27.285100   322.354500 xlo xhi
  -57.280400    21.528600 ylo yhi
  -19.071800   190.433400 zlo zhi

Masses

         1     12.011
         2     15.999
         3      1.008
         4     12.011
         5     15.999
         6     12.011
         7     12.011
         8     28.085
         9     15.999
        10      1.008
        11     12.011
        12     28.085
        13     12.011
        14     15.999
        15     28.085
        16     28.085
        17      1.008
        18     12.011
        19     12.011
        20     12.011
        21     12.011
        22     12.011
        23     12.011
        24      1.008
        25     12.011
        26     12.011
        27     12.011
        28     12.011
        29     12.011
        30     12.011
        31     12.011
        32     12.011
        33     12.011
        34     14.007
        35     14.007
        36     14.007
        37     12.011

Pair Coeffs

         1          0.066      3.5000000
         2          0.210      2.9600000
         3          0.030      2.5000000
         4          0.070      3.5500000
         5          0.140      2.9000000
         6          0.066      3.5000000
         7          0.066      3.5000000
         8          0.100      4.0000000
         9          0.140      2.9000000
        10          0.030      2.5000000
        11          0.066      3.5000000
        12          0.100      4.0000000
        13          0.066      3.5000000
        14          0.140      2.9000000
        15          0.100      4.0000000
        16          0.100      4.0000000
        17          0.030      2.4200000
        18          0.070      3.5500000
        19          0.070      3.5500000
        20          0.070      3.5500000
        21          0.066      3.5000000
        22          0.066      3.5000000
        23          0.066      3.5000000
        24          0.030      2.5000000
        25          0.066      3.5000000
        26          0.066      3.5000000
        27          0.070      3.5500000
        28          0.066      3.5000000
        29          0.066      3.5000000
        30          0.066      3.5000000
        31          0.066      3.5000000
        32          0.070      3.5500000
        33          0.070      3.5500000
        34          0.170      3.2500000
        35          0.170      3.2500000
        36          0.170      3.2500000
        37          0.066      3.5000000

Bond Coeffs

         1       187.0000         1.8600
         2       340.0000         1.0900
         3       374.0000         1.6400
         4       268.0000         1.5290
         5       317.0000         1.5100
         6       472.9231         1.3977
         7       469.0000         1.4000
         8       367.0000         1.0800
         9       337.0000         1.4750
        10       400.0000         1.3490
        11       400.0000         1.2800
        12       410.0000         1.3940
        13       317.0000         1.5070
        14       427.0000         1.3810
        15       320.0000         1.4100
        16       214.0000         1.3270
        17       317.0000         1.5220
        18       570.0000         1.2290

Angle Coeffs

         1         60.000        110.000
         2         60.000        100.000
         3         35.000        109.500
         4         33.000        107.800
         5         20.000        145.000
         6         60.000        112.000
         7         37.500        110.700
         8         58.350        112.700
         9         63.000        114.000
        10         70.000        120.000
        11         63.000        120.000
        12         35.000        120.823
        13         35.000        120.000
        14         51.650        110.580
        15         80.000        111.200
        16         70.000        118.400
        17         63.000        112.400
        18         56.000        113.100
        19         59.410        111.360
        20         70.000        117.000
        21         70.000        124.500
        22         70.000        111.000
        23         70.000        123.567
        24         50.000        109.500
        25         70.000        106.300
        26         35.000        121.600
        27         83.000        116.900
        28         81.000        111.400
        29         83.000        123.400
        30         80.000        120.400
        31         63.000        111.100

Dihedral Coeffs

         1.000         0.000         0.000         0.180         0.000
         2.000         0.000         0.000         0.000         0.000
         3.000         1.000         0.000         0.000         0.000
         4.000         0.000         0.000         0.462         0.000
         5.000         1.300        -0.200         0.200         0.000
         6.000         0.000         0.000         0.300         0.000
         7.000         0.000         7.250         0.000         0.000
         8.000         2.392        -0.674         0.550         0.000
         9.000        -1.013        -0.709         0.473         0.000
        10.000         1.000        -0.350         0.000         0.000
        11.000         0.000         2.170         0.000         0.000
        12.000         0.000        10.000         0.000         0.000
        13.000         1.711        -0.500         0.663         0.000
        14.000         0.000         8.417         0.000         0.000
        15.000         0.000         5.000         0.000         0.000
        16.000        -1.220        -0.126         0.422         0.000
        17.000         0.000         0.000         0.198         0.000
        18.000         4.669         5.124         0.000         0.000
        19.000         0.000         5.124         0.000         0.000
        20.000         0.000         0.000        -0.553         0.000
        21.000         0.000         0.000         0.132         0.000
        22.000        -0.550         0.000         1.000         0.000
        23.000         0.000         0.000        -0.100         0.000
        24.000         0.000         0.000         0.450         0.000
        25.000        -2.060        -0.313         0.315         0.000
        26.000         5.200        -0.500         0.000         0.000

Improper Coeffs

         1         0.000            -1             2
         2         2.500            -1             2
         3        10.500            -1             2

Atoms

         1     1    12       1.640000       -6.53210        2.52630       -0.06400
         2     1    13      -0.669500       -7.93630        3.33370        0.92970
         3     1    13      -0.669500       -5.98640        0.96640        0.86560
         4     1    10       0.099650       -8.68650        2.57490        1.20270
         5     1    10       0.099650       -8.45270        4.10810        0.34250
         6     1    10       0.099650       -7.56120        3.78970        1.85810
         7     1    10       0.099650       -5.48220        1.21740        1.80490
         8     1    10       0.099650       -5.27150        0.38220        0.26830
         9     1    10       0.099650       -6.83690        0.31530        1.11140
        10     1    15       1.929000       -8.01900        1.43820       -2.71990
        11     1    13      -0.669500       -6.95240       -0.00120       -3.33970
        12     1    13      -0.669500       -8.26440        2.72460       -4.08110
        13     1    10       0.099650       -6.97300       -0.09220       -4.43600
        14     1    10       0.099650       -7.31240       -0.94830       -2.90940
        15     1    10       0.099650       -5.90070        0.13290       -3.03820
        16     1    10       0.099650       -8.62430        2.26470       -5.01390
        17     1    10       0.099650       -7.33220        3.26630       -4.29850
        18     1    10       0.099650       -9.01120        3.46550       -3.75840
        19     1    14      -1.086100       -7.16740        2.10860       -1.50950
        20     1    15       1.929000      -11.11310        0.98170       -2.20040
        21     1    13      -0.669500      -11.76240        2.69680       -1.69400
        22     1    13      -0.669500      -11.77690       -0.35900       -1.03340
        23     1    10       0.099650      -12.86040        2.71620       -1.61450
        24     1    10       0.099650      -11.46140        3.45970       -2.42750
        25     1    10       0.099650      -11.34000        2.99310       -0.71990
        26     1    10       0.099650      -11.60930       -1.36270       -1.45100
        27     1    10       0.099650      -12.85420       -0.23730       -0.85600
        28     1    10       0.099650      -11.26860       -0.31650       -0.05850
        29     1    14      -1.086100       -9.47680        0.93340       -2.15050
        30     1    15       1.929000      -11.42830       -0.51140       -4.96710
        31     1    13      -0.669500      -12.36040       -2.07800       -4.43540
        32     1    13      -0.669500       -9.61220       -0.91500       -5.35600
        33     1    10       0.099650      -11.85160       -2.57020       -3.59250
        34     1    10       0.099650      -12.43710       -2.80040       -5.26280
        35     1    10       0.099650      -13.38810       -1.83780       -4.11920
        36     1    10       0.099650       -9.55490       -1.67120       -6.15500
        37     1    10       0.099650       -9.11150       -1.32580       -4.46740
        38     1    10       0.099650       -9.05020       -0.03410       -5.70000
        39     1    14      -1.086100      -11.54690        0.60110       -3.74520
        40     1    15       1.929000      -13.29700        0.17870       -7.47610
        41     1    13      -0.669500      -12.80860       -0.89050       -8.97570
        42     1    13      -0.669500      -13.61660        1.92570       -8.15900
        43     1    10       0.099650      -13.49830       -0.77130       -9.82790
        44     1    10       0.099650      -12.78830       -1.95280       -8.68760
        45     1    10       0.099650      -11.78960       -0.62370       -9.30180
        46     1    10       0.099650      -14.30830        1.92960       -9.01300
        47     1    10       0.099650      -12.66570        2.37800       -8.48250
        48     1    10       0.099650      -14.02620        2.56840       -7.36370
        49     1    14      -1.086100      -12.13590        0.14450       -6.30400
        50     1    15       1.929000      -16.29850       -0.70920       -7.46140
        51     1    13      -0.669500      -16.96870        0.86150       -8.30180
        52     1    13      -0.669500      -17.61590       -1.26940       -6.21030
        53     1    10       0.099650      -18.02640        0.76270       -8.58810
        54     1    10       0.099650      -16.39540        1.09330       -9.21080
        55     1    10       0.099650      -16.86360        1.70820       -7.60280
        56     1    10       0.099650      -17.30740       -2.19650       -5.70350
        57     1    10       0.099650      -18.57840       -1.45960       -6.70820
        58     1    10       0.099650      -17.77370       -0.50420       -5.43590
        59     1    14      -1.086100      -14.75230       -0.40320       -6.90440
        60     1    16       1.661150      -16.56230       -2.80430       -9.93590
        61     1    13      -0.669500      -18.10840       -3.88830       -9.71060
        62     1    13      -0.669500      -15.00910       -3.87890      -10.19910
        63     1    10       0.099650      -17.92880       -4.63910       -8.92440
        64     1    10       0.099650      -18.38180       -4.41830      -10.63550
        65     1    10       0.099650      -18.97130       -3.28060       -9.39770
        66     1    10       0.099650      -15.07080       -4.44060      -11.14350
        67     1    10       0.099650      -14.89140       -4.61070       -9.38580
        68     1    10       0.099650      -14.09530       -3.26660      -10.22990
        69     1    14      -1.086100      -16.22110       -1.87750       -8.61330
        70     1     8       2.130700        0.30220        3.09400        4.81510
        71     1     9      -1.142667        0.43560        1.52290        5.32250
        72     1     8       2.130700        0.59540        0.02430        4.63660
        73     1     9      -1.142667       -0.77660       -0.84940        4.79470
        74     1     8       2.130700       -2.24500       -0.69370        4.10930
        75     1     9      -1.142667       -2.49270        0.90630        4.01570
        76     1     8       2.130700       -2.61510        2.51250        4.17260
        77     1     9      -1.142667       -1.31750        3.17940        4.91450
        78     1     8       2.130700        0.70700        2.91020        1.54210
        79     1     9      -1.142667        1.40750        1.44590        1.11920
        80     1     8       2.130700        0.93150       -0.09990        1.43340
        81     1     8       2.130700       -2.07170       -0.61550        0.96350
        82     1     9      -1.142667       -0.50600       -0.35010        0.66000
        83     1     9      -1.142667       -2.77800        0.87570        1.00570
        84     1     8       2.130700       -2.40630        2.49200        1.02020
        85     1     9      -1.142667       -0.78820        2.81830        0.81920
        86     1     9      -1.142667        0.59880        3.06950        3.18590
        87     1     9      -1.142667       -2.61970        3.01730        2.58670
        88     1     9      -1.142667       -2.12520       -1.20290        2.52970
        89     1     9      -1.142667        0.75790        0.16450        3.03030
        90     1     7      -0.637000       -3.56800        3.12950       -0.42440
        91     1     3       0.147200       -3.62180        2.33750       -1.19390
        92     1     3       0.147200       -2.97410        3.93820       -0.88280
        93     1    13      -0.669500      -16.86010       -1.66200      -11.42910
        94     1    10       0.099650      -17.03880       -2.23730      -12.35170
        95     1    10       0.099650      -15.98940       -1.01210      -11.60610
        96     1    10       0.099650      -17.73840       -1.01290      -11.28250
        97     1    12       1.640000       -7.09810        2.13550        5.64290
        98     1    13      -0.669500       -8.26230        0.95720        4.72330
        99     1    13      -0.669500       -7.58860        3.96100        5.46480
       100     1    10       0.099650       -7.96110       -0.08900        4.89050
       101     1    10       0.099650       -8.22970        1.13380        3.63640
       102     1    10       0.099650       -9.30330        1.08080        5.05280
       103     1    10       0.099650       -8.60010        4.15160        5.84960
       104     1    10       0.099650       -7.56940        4.26180        4.40580
       105     1    10       0.099650       -6.88950        4.61430        6.01040
       106     1    11      -0.525600       -5.40130        1.94480        4.74760
       107     1     3       0.147200       -5.58970        2.17360        3.68630
       108     1     3       0.147200       -5.13410        0.87670        4.78810
       109     1    15       1.929000       -8.22570        1.68010        8.56300
       110     1    13      -0.669500       -9.25880        3.28380        8.52340
       111     1    13      -0.669500       -7.35010        1.54190       10.23010
       112     1    10       0.099650       -9.85710        3.35300        9.44060
       113     1    10       0.099650       -9.94160        3.28620        7.65940
       114     1    10       0.099650       -8.62130        4.17910        8.47750
       115     1    10       0.099650       -6.46070        2.18960       10.25360
       116     1    10       0.099650       -7.00920        0.50530       10.38850
       117     1    10       0.099650       -8.01190        1.82270       11.06350
       118     1    14      -1.086100       -7.18480        1.78610        7.26990
       119     1    15       1.929000      -10.05150       -0.96140        7.99560
       120     1    13      -0.669500       -9.33740       -2.62840        8.53390
       121     1    13      -0.669500      -10.64920       -1.13620        6.19380
       122     1    10       0.099650       -9.17850       -2.65200        9.62270
       123     1    10       0.099650       -8.36600       -2.82060        8.05430
       124     1    10       0.099650      -10.01840       -3.45450        8.27600
       125     1    10       0.099650       -9.82380       -1.41840        5.52330
       126     1    10       0.099650      -11.08610       -0.20280        5.81390
       127     1    10       0.099650      -11.41910       -1.91880        6.10370
       128     1    14      -1.086100       -9.17040        0.36690        8.35390
       129     1    15       1.929000      -12.66640        0.37750        8.76540
       130     1    13      -0.669500      -13.66560        0.06920        7.19980
       131     1    13      -0.669500      -12.47190        2.25160        9.00180
       132     1    10       0.099650      -13.79040       -1.00780        7.00900
       133     1    10       0.099650      -13.19080        0.51230        6.31220
       134     1    10       0.099650      -14.66800        0.51240        7.29440
       135     1    10       0.099650      -13.43150        2.74060        9.23390
       136     1    10       0.099650      -12.07590        2.71440        8.08730
       137     1    10       0.099650      -11.77910        2.45410        9.83070
       138     1    14      -1.086100      -11.42090       -0.69820        8.84210
       139     1    15       1.929000      -14.85410        0.01840       11.02630
       140     1    13      -0.669500      -15.42000        1.74660       11.60940
       141     1    13      -0.669500      -14.73380       -1.00240       12.62400
       142     1    10       0.099650      -16.32200        1.69620       12.23820
       143     1    10       0.099650      -15.64480        2.37910       10.73620
       144     1    10       0.099650      -14.62920        2.24420       12.19170
       145     1    10       0.099650      -13.93050       -0.58680       13.25330
       146     1    10       0.099650      -14.45900       -2.04470       12.40480
       147     1    10       0.099650      -15.66920       -0.99030       13.20640
       148     1    14      -1.086100      -13.52790        0.00550       10.09450
       149     1    15       1.929000      -17.38660       -1.72220       10.38640
       150     1    13      -0.669500      -17.21990       -3.12670       11.64920
       151     1    13      -0.669500      -17.80890       -2.48030        8.69910
       152     1    10       0.099650      -16.43700       -3.82730       11.32110
       153     1    10       0.099650      -18.15770       -3.69210       11.76380
       154     1    10       0.099650      -16.93550       -2.74960       12.64100
       155     1    10       0.099650      -17.03590       -3.19850        8.39040
       156     1    10       0.099650      -17.86120       -1.70000        7.92510
       157     1    10       0.099650      -18.77250       -3.00750        8.72200
       158     1    14      -1.086100      -16.06930       -0.73060       10.16500
       159     1    16       1.661150      -20.27870       -0.67320       11.21100
       160     1    13      -0.669500      -21.22400       -0.18330        9.62820
       161     1    13      -0.669500      -20.46690        0.68120       12.50950
       162     1    10       0.099650      -21.17560       -0.97990        8.87060
       163     1    10       0.099650      -20.79630        0.73000        9.18700
       164     1    10       0.099650      -22.28510        0.01370        9.85430
       165     1    10       0.099650      -21.53230        0.84850       12.72720
       166     1    10       0.099650      -20.05410        1.64500       12.17170
       167     1    10       0.099650      -19.98450        0.43020       13.46770
       168     1    14      -1.086100      -18.65050       -0.80350       10.90080
       169     1    13      -0.669500      -20.99610       -2.31150       11.86390
       170     1    10       0.099650      -20.84560       -3.11210       11.12110
       171     1    10       0.099650      -22.07380       -2.22710       12.07010
       172     1    10       0.099650      -20.49670       -2.61640       12.79670
       173     1    12       1.640000       -2.13800       -4.18240       -2.08840
       174     1    13      -0.669500       -2.04250       -5.51150       -0.72680
       175     1    13      -0.669500       -0.67960       -4.42430       -3.29140
       176     1    10       0.099650       -1.05520       -5.51800       -0.24410
       177     1    10       0.099650       -2.24020       -6.51500       -1.13950
       178     1    10       0.099650       -2.79100       -5.32140        0.05630
       179     1    10       0.099650       -0.57570       -5.48740       -3.56210
       180     1    10       0.099650        0.27430       -4.08980       -2.85640
       181     1    10       0.099650       -0.83240       -3.86330       -4.22680
       182     1     7      -0.637000       -2.90200       -1.94200       -0.19450
       183     1     3       0.147200       -3.84650       -1.55350       -0.61360
       184     1     3       0.147200       -3.19570       -2.79620        0.43850
       185     1    15       1.929000       -4.61220       -4.57020       -4.14520
       186     1    13      -0.669500       -3.72690       -4.02110       -5.73070
       187     1    13      -0.669500       -6.02240       -3.38750       -3.67920
       188     1    10       0.099650       -3.46750       -2.95320       -5.70350
       189     1    10       0.099650       -4.35420       -4.19540       -6.61890
       190     1    10       0.099650       -2.78900       -4.58230       -5.86490
       191     1    10       0.099650       -6.79040       -3.37490       -4.46940
       192     1    10       0.099650       -5.61520       -2.37150       -3.57780
       193     1    10       0.099650       -6.49450       -3.66410       -2.72470
       194     1    14      -1.086100       -3.49580       -4.60530       -2.93350
       195     1    15       1.929000       -6.68250       -6.98060       -4.10860
       196     1    13      -0.669500       -8.30060       -5.96800       -4.19050
       197     1    13      -0.669500       -6.50730       -7.65670       -2.34700
       198     1    10       0.099650       -9.18230       -6.61630       -4.08140
       199     1    10       0.099650       -8.38540       -5.44960       -5.15840
       200     1    10       0.099650       -8.34350       -5.21630       -3.38660
       201     1    10       0.099650       -5.80560       -8.50550       -2.32570
       202     1    10       0.099650       -7.46940       -7.99750       -1.94040
       203     1    10       0.099650       -6.10650       -6.87830       -1.68450
       204     1    14      -1.086100       -5.33330       -6.04660       -4.38820
       205     1    15       1.929000       -7.62370       -9.34650       -5.98980
       206     1    13      -0.669500       -9.37050       -9.47860       -5.21580
       207     1    13      -0.669500       -6.87470      -11.08230       -5.98960
       208     1    10       0.099650       -9.29800       -9.77280       -4.15620
       209     1    10       0.099650      -10.00450      -10.20640       -5.74330
       210     1    10       0.099650       -9.87350       -8.49890       -5.23570
       211     1    10       0.099650       -5.91870      -11.10220       -6.53650
       212     1    10       0.099650       -7.54790      -11.82690       -6.44110
       213     1    10       0.099650       -6.66490      -11.37170       -4.94620
       214     1    14      -1.086100       -6.71010       -8.23740       -5.18500
       215     1    15       1.929000       -8.62500       -9.15160       -8.92280
       216     1    13      -0.669500       -7.72180      -10.72400       -9.45770
       217     1    13      -0.669500       -8.59580       -7.97970      -10.41470
       218     1    10       0.099650       -7.67050      -10.80040      -10.55410
       219     1    10       0.099650       -8.22230      -11.63280       -9.08910
       220     1    10       0.099650       -6.68990      -10.71440       -9.06990
       221     1    10       0.099650       -8.98050       -8.47600      -11.31980
       222     1    10       0.099650       -7.57270       -7.62970      -10.61650
       223     1    10       0.099650       -9.22190       -7.09490      -10.22180
       224     1    14      -1.086100       -7.86080       -8.81730       -7.53410
       225     1    15       1.929000      -11.47700      -10.27660       -9.22990
       226     1    13      -0.669500      -13.02010       -9.26550       -9.68110
       227     1    13      -0.669500      -11.96780      -11.80150       -8.20760
       228     1    10       0.099650      -13.73500       -9.84300      -10.28530
       229     1    10       0.099650      -12.73100       -8.36310      -10.24190
       230     1    10       0.099650      -13.53250       -8.92680       -8.76680
       231     1    10       0.099650      -11.07460      -12.39140       -7.95090
       232     1    10       0.099650      -12.67840      -12.45070       -8.73740
       233     1    10       0.099650      -12.42910      -11.48500       -7.25840
       234     1    14      -1.086100      -10.20460       -9.50740       -8.55260
       235     1    16       1.661150      -11.07200      -11.63570      -12.08860
       236     1    13      -0.669500      -11.78050      -13.36820      -11.75650
       237     1    13      -0.669500       -9.43880      -11.86210      -13.03540
       238     1    10       0.099650      -11.09950      -13.95260      -11.11840
       239     1    10       0.099650      -11.93160      -13.92870      -12.69300
       240     1    10       0.099650      -12.74890      -13.30570      -11.23740
       241     1    10       0.099650       -9.58040      -12.42370      -13.97160
       242     1    10       0.099650       -8.70960      -12.40610      -12.41500
       243     1    10       0.099650       -8.99500      -10.88500      -13.28140
       244     1    14      -1.086100      -10.85480      -10.81630      -10.66610
       245     1    13      -0.669500      -12.30320      -10.74080      -13.22730
       246     1    10       0.099650      -12.60630      -11.37700      -14.07180
       247     1    10       0.099650      -11.86070       -9.82070      -13.63950
       248     1    10       0.099650      -13.20970      -10.45090      -12.67480
       249     1    12       1.640000       -3.97620       -4.30980        4.07220
       250     1    13      -0.669500       -3.89780       -5.28140        5.71430
       251     1    13      -0.669500       -2.37060       -4.56020        3.10210
       252     1    10       0.099650       -2.95380       -5.08990        6.24940
       253     1    10       0.099650       -3.97260       -6.36510        5.51910
       254     1    10       0.099650       -4.72990       -5.00310        6.37990
       255     1    10       0.099650       -2.42250       -4.07230        2.11950
       256     1    10       0.099650       -2.14960       -5.62550        2.94080
       257     1    10       0.099650       -1.51700       -4.12500        3.63540
       258     1     7      -0.637000       -3.54860       -1.59950        5.16020
       259     1     3       0.147200       -4.10900       -0.85300        5.74790
       260     1     3       0.147200       -3.02310       -2.22050        5.90390
       261     1    15       1.929000       -6.56660       -4.92950        2.30750
       262     1    13      -0.669500       -6.13950       -5.52810        0.56930
       263     1    13      -0.669500       -7.11750       -3.10350        2.22750
       264     1    10       0.099650       -5.27110       -4.96920        0.18740
       265     1    10       0.099650       -6.97840       -5.37200       -0.12590
       266     1    10       0.099650       -5.88370       -6.60000        0.57140
       267     1    10       0.099650       -8.02270       -2.99590        1.61040
       268     1    10       0.099650       -6.32870       -2.47900        1.78100
       269     1    10       0.099650       -7.33490       -2.71310        3.23480
       270     1    14      -1.086100       -5.22950       -5.01430        3.26740
       271     1    15       1.929000       -8.93650       -6.77840        3.54970
       272     1    13      -0.669500      -10.29380       -5.58600        4.16940
       273     1    13      -0.669500       -8.29440       -7.82300        5.00660
       274     1    10       0.099650      -11.11150       -6.12670        4.67040
       275     1    10       0.099650      -10.72410       -5.02990        3.32170
       276     1    10       0.099650       -9.88130       -4.84430        4.87320
       277     1    10       0.099650       -7.40760       -8.40060        4.70390
       278     1    10       0.099650       -9.04670       -8.50910        5.42100
       279     1    10       0.099650       -7.96090       -7.16470        5.82400