LAMMPS data file Generated by mappingff

      1552 atoms
      1601 bonds
      2900 angles
      4291 dihedrals
       350 impropers

        45 atom types
         9 bond types
        13 angle types
        12 dihedral types
         2 improper types

 -230.254600     5.597500 xlo xhi
  -12.785700    12.632000 ylo yhi
  -16.149100    33.657100 zlo zhi

Masses

         1     12.011
         2     12.011
         3      1.008
         4     12.011
         5     12.011
         6      1.008
         7     15.999
         8     15.999
         9      1.008
        10     12.011
        11      1.008
        12     12.011
        13     12.011
        14      1.008
        15     12.011
        16     12.011
        17     15.999
        18     15.999
        19      1.008
        20     12.011
        21     12.011
        22     12.011
        23     12.011
        24     12.011
        25      1.008
        26     12.011
        27      1.008
        28     12.011
        29     12.011
        30     12.011
        31      1.008
        32     12.011
        33     12.011
        34      1.008
        35      1.008
        36     12.011
        37     12.011
        38     12.011
        39      1.008
        40      1.008
        41     12.011
        42     12.011
        43     12.011
        44      1.008
        45     12.011

Pair Coeffs

         1          0.066      3.5000000
         2          0.066      3.5000000
         3          0.030      2.5000000
         4          0.070      3.5500000
         5          0.066      3.5000000
         6          0.030      2.5000000
         7          0.140      2.9000000
         8          0.210      2.9600000
         9          0.030      2.5000000
        10          0.066      3.5000000
        11          0.030      2.5000000
        12          0.066      3.5000000
        13          0.066      3.5000000
        14          0.030      2.5000000
        15          0.070      3.5500000
        16          0.066      3.5000000
        17          0.140      2.9000000
        18          0.210      2.9600000
        19          0.030      2.5000000
        20          0.066      3.5000000
        21          0.066      3.5000000
        22          0.066      3.5000000
        23          0.066      3.5000000
        24          0.066      3.5000000
        25          0.030      2.5000000
        26          0.070      3.5500000
        27          0.030      2.5000000
        28          0.070      3.5500000
        29          0.070      3.5500000
        30          0.070      3.5500000
        31          0.030      2.4200000
        32          0.070      3.5500000
        33          0.070      3.5500000
        34          0.030      2.4200000
        35          0.030      2.4200000
        36          0.066      3.5000000
        37          0.070      3.5500000
        38          0.066      3.5000000
        39          0.030      2.5000000
        40          0.030      2.5000000
        41          0.066      3.5000000
        42          0.066      3.5000000
        43          0.070      3.5500000
        44          0.030      2.5000000
        45          0.070      3.5500000

Bond Coeffs

         1       268.0000         1.5290
         2       340.0000         1.0900
         3       317.0000         1.5220
         4       214.0000         1.3270
         5       570.0000         1.2290
         6       320.0000         1.4100
         7       317.0000         1.5100
         8       469.0000         1.4000
         9       367.0000         1.0800

Angle Coeffs

         1         37.500        110.700
         2         58.350        112.700
         3         33.000        107.800
         4         63.000        111.100
         5         35.000        109.500
         6         81.000        111.400
         7         80.000        120.400
         8         83.000        123.400
         9         83.000        116.900
        10         63.000        114.000
        11         70.000        120.000
        12         63.000        120.000
        13         35.000        120.000

Dihedral Coeffs

         1         0.000         0.000        -0.100         0.000
         2         0.000         0.000         0.300         0.000
         3        -2.060        -0.313         0.315         0.000
         4         1.300        -0.200         0.200         0.000
         5         0.000         0.000        -0.553         0.000
         6         0.000         0.000         0.000         0.000
         7         0.000         0.000         0.132         0.000
         8         4.669         5.124         0.000         0.000
         9         0.000         5.124         0.000         0.000
        10         0.000         0.000         0.198         0.000
        11         0.000         0.000         0.462         0.000
        12         0.000         7.250         0.000         0.000

Improper Coeffs

         1        10.500            -1             2
         2         2.500            -1             2

Atoms

         1     1     1      -0.166400       -3.48920        1.02400       -1.23190
         2     1     2      -0.107250       -2.04260        1.34040       -1.73280
         3     1     3       0.102600       -4.18950        1.25300       -2.06570
         4     1     3       0.102600       -3.71060        1.80170       -0.46920
         5     1     4       0.438150       -1.07240        1.60830       -0.60160
         6     1     5      -0.231900       -1.47790        0.36890       -2.77780
         7     1     6       0.126200       -2.12690        2.31290       -2.26710
         8     1     7      -0.372050       -1.35480        2.66390        0.28920
         9     1     8      -0.441100       -0.05230        0.93950       -0.48720
        10     1     9       0.101650       -2.22480        0.17730       -3.57630
        11     1     9       0.101650       -1.15530       -0.58350       -2.30940
        12     1     9       0.101650       -0.58330        0.81990       -3.25920
        13     1    10      -0.052250       -0.35080        2.94880        1.26360
        14     1    11       0.101511        0.59750        3.24900        0.76820
        15     1    11       0.101511       -0.17460        2.06790        1.91450
        16     1    11       0.101511       -0.69630        3.78800        1.90110
        17     1    12      -0.169250       -5.27170       -0.23880        0.09010
        18     1    13      -0.021600       -3.86920       -0.39220       -0.64460
        19     1    14       0.107725       -6.05020       -0.23570       -0.70650
        20     1    14       0.107725       -5.34690        0.78540        0.51590
        21     1    15       0.443500       -2.77260       -0.86090        0.30370
        22     1    16      -0.228600       -4.05140       -1.38560       -1.83460
        23     1    17      -0.366600       -2.43270       -0.06560        1.41720
        24     1    18      -0.439467       -2.16900       -1.90330        0.07510
        25     1    19       0.105750       -4.76970       -0.98450       -2.58120
        26     1    19       0.105750       -4.42800       -2.37080       -1.51680
        27     1    19       0.105750       -3.10690       -1.60590       -2.35700
        28     1    20      -0.050971       -1.36810       -0.56250        2.23310
        29     1    11       0.101511       -1.17620        0.15310        3.05710
        30     1    11       0.101511       -0.43340       -0.66170        1.64170
        31     1    11       0.101511       -1.64090       -1.54340        2.67740
        32     1    21      -0.169500       -7.32340       -0.97230        1.41470
        33     1    13      -0.021600       -5.76120       -1.21490        1.23830
        34     1    14       0.107725       -7.81530       -1.51040        0.57530
        35     1    14       0.107725       -7.54180        0.09480        1.18540
        36     1    15       0.443500       -4.99900       -0.88550        2.52040
        37     1    16      -0.228600       -5.53400       -2.69200        0.81660
        38     1    17      -0.366600       -4.99620        0.44020        3.00320
        39     1    18      -0.439467       -4.36590       -1.76040        3.10230
        40     1    19       0.105750       -6.09730       -2.92760       -0.11100
        41     1    19       0.105750       -5.85850       -3.41380        1.58390
        42     1    19       0.105750       -4.46120       -2.90740        0.66040
        43     1    20      -0.050971       -4.30470        0.65630        4.23650
        44     1    11       0.101511       -3.24200        0.35620        4.15500
        45     1    11       0.101511       -4.78520        0.08610        5.05890
        46     1    11       0.101511       -4.33510        1.73510        4.48870
        47     1    21      -0.169500       -9.66750       -1.28970        2.41460
        48     1    13      -0.021600       -8.10800       -1.31100        2.75220
        49     1    14       0.107725       -9.81800       -1.74920        1.41390
        50     1    14       0.107725       -9.95360       -0.22800        2.26080
        51     1    15       0.443500       -7.81600       -0.20760        3.76540
        52     1    16      -0.228600       -7.67490       -2.68330        3.30930
        53     1    17      -0.366600       -8.06260        1.13170        3.39860
        54     1    18      -0.439467       -7.37530       -0.48240        4.87710
        55     1    19       0.105750       -7.90380       -3.49170        2.58430
        56     1    19       0.105750       -8.15410       -2.89310        4.28320
        57     1    19       0.105750       -6.60030       -2.70900        3.55060
        58     1    20      -0.050971       -7.79980        2.12210        4.39120
        59     1    11       0.101511       -7.98660        3.12460        3.95500
        60     1    11       0.101511       -6.74160        2.07780        4.72110
        61     1    11       0.101511       -8.47400        1.98480        5.26080
        62     1    21      -0.169500      -12.22240       -1.49600        2.88710
        63     1    13      -0.021600      -10.75550       -1.94790        3.36120
        64     1    14       0.107725      -12.89680       -2.38150        2.89000
        65     1    14       0.107725      -12.15640       -1.25550        1.80330
        66     1    15       0.443500      -10.44860       -1.61770        4.82100
        67     1    16      -0.228600      -10.74540       -3.49910        3.15780
        68     1    17      -0.366600      -10.33670       -0.27420        5.22270
        69     1    18      -0.439467      -10.31010       -2.52120        5.64000
        70     1    19       0.105750      -10.85100       -3.75710        2.08220
        71     1    19       0.105750      -11.59190       -3.96990        3.70370
        72     1    19       0.105750       -9.85580       -4.01360        3.54950
        73     1    20      -0.050971      -10.16360       -0.04370        6.62220
        74     1    11       0.101511      -10.15260        1.04960        6.80870
        75     1    11       0.101511       -9.19830       -0.47000        6.96810
        76     1    11       0.101511      -11.00560       -0.48320        7.19940
        77     1    21      -0.169500      -14.43690       -0.23740        2.77210
        78     1    13      -0.021600      -13.07900       -0.36780        3.58280
        79     1    14       0.107725      -14.92420       -1.20720        2.86520
        80     1    14       0.107725      -14.18940       -0.20190        1.68770
        81     1    15       0.443500      -12.32710        0.95400        3.48630
        82     1    16      -0.228600      -13.42500       -0.81800        5.04420
        83     1    17      -0.366600      -11.97950        1.43920        2.20640
        84     1    18      -0.439467      -12.05570        1.59500        4.49070
        85     1    19       0.105750      -14.43330       -1.27950        5.09640
        86     1    19       0.105750      -13.38420        0.01350        5.77530
        87     1    19       0.105750      -12.79020       -1.62600        5.43450
        88     1    20      -0.050971      -11.30710        2.69880        2.18000
        89     1    11       0.101511      -10.33900        2.63320        2.72080
        90     1    11       0.101511      -11.94360        3.48960        2.63330
        91     1    11       0.101511      -11.10310        2.97680        1.12560
        92     1    21      -0.169500      -16.99610        0.52330        2.70060
        93     1    13      -0.021600      -15.48910        0.91580        3.07570
        94     1    14       0.107725      -17.04450        0.38780        1.59810
        95     1    14       0.107725      -17.58570        1.45010        2.87930
        96     1    15       0.443500      -15.13130        2.09240        2.15370
        97     1    16      -0.228600      -15.43910        1.43000        4.53580
        98     1    17      -0.366600      -15.19400        1.91030        0.75710
        99     1    18      -0.439467      -14.80990        3.18320        2.62250
       100     1    19       0.105750      -15.56500        0.62080        5.26210
       101     1    19       0.105750      -16.23400        2.18600        4.71260
       102     1    19       0.105750      -14.48210        1.93200        4.76990
       103     1    20      -0.050971      -14.92000        3.06210       -0.04160
       104     1    11       0.101511      -15.05080        2.79800       -1.11090
       105     1    11       0.101511      -13.87250        3.40000        0.11330
       106     1    11       0.101511      -15.62830        3.88400        0.20400
       107     1    21      -0.169500      -19.35800       -0.53730        2.87110
       108     1    13      -0.021600      -17.83020       -0.68330        3.34050
       109     1    14       0.107725      -19.40040       -0.88360        1.81440
       110     1    14       0.107725      -19.60520        0.54510        2.80090
       111     1    15       0.443500      -17.73270       -0.63220        4.86490
       112     1    16      -0.228600      -17.27770       -2.03130        2.76670
       113     1    17      -0.366600      -18.06890        0.55930        5.54200
       114     1    18      -0.439467      -17.34370       -1.61010        5.49500
       115     1    19       0.105750      -16.82900       -1.88800        1.76060
       116     1    19       0.105750      -18.05610       -2.79410        2.61000
       117     1    19       0.105750      -16.51810       -2.50380        3.42390
       118     1    20      -0.050971      -17.82760        0.56540        6.95510
       119     1    11       0.101511      -18.07370        1.56440        7.36490
       120     1    11       0.101511      -16.76050        0.36820        7.18360
       121     1    11       0.101511      -18.45810       -0.19170        7.46650
       122     1    21      -0.169500      -21.91360       -1.03620        2.80660
       123     1    13      -0.021600      -20.56840       -1.21760        3.66220
       124     1    14       0.107725      -21.66060       -1.16850        1.73210
       125     1    14       0.107725      -22.18230        0.04010        2.87630
       126     1    15       0.443500      -20.73750       -0.46860        4.97980
       127     1    16      -0.228600      -20.27200       -2.71300        3.91770
       128     1    17      -0.366600      -21.04610        0.90740        4.93780
       129     1    18      -0.439467      -20.59470       -1.04730        6.05210
       130     1    19       0.105750      -20.23150       -3.27320        2.96120
       131     1    19       0.105750      -21.02980       -3.17360        4.57690
       132     1    19       0.105750      -19.31630       -2.85270        4.45690
       133     1    20      -0.050971      -21.25300        1.55260        6.19440
       134     1    11       0.101511      -20.33690        1.52920        6.80820
       135     1    11       0.101511      -22.07490        1.07310        6.75730
       136     1    11       0.101511      -21.52000        2.61200        6.01910
       137     1    21      -0.169500      -24.51010       -1.16640        2.35530
       138     1    13      -0.021600      -23.24710       -1.88280        3.07450
       139     1    14       0.107725      -24.69030       -1.66220        1.37500
       140     1    14       0.107725      -24.21180       -0.14590        2.03430
       141     1    15       0.443500      -23.43130       -2.10490        4.58240
       142     1    16      -0.228600      -23.10360       -3.26870        2.37400
       143     1    17      -0.366600      -23.46400       -1.00940        5.46660
       144     1    18      -0.439467      -23.51820       -3.24720        5.02330
       145     1    19       0.105750      -22.36810       -3.93230        2.86010
       146     1    19       0.105750      -22.80840       -3.15150        1.30970
       147     1    19       0.105750      -24.06730       -3.81820        2.39770
       148     1    20      -0.050971      -23.66790       -1.33160        6.84780
       149     1    11       0.101511      -23.75250       -0.39490        7.43330
       150     1    11       0.101511      -22.81250       -1.92000        7.24170
       151     1    11       0.101511      -24.61100       -1.90350        6.98530
       152     1    21      -0.169500      -27.05860       -0.52620        2.00960
       153     1    13      -0.021600      -25.93400       -1.02930        3.05210
       154     1    14       0.107725      -27.53150       -1.41930        1.55550
       155     1    14       0.107725      -26.51530       -0.11500        1.13310
       156     1    15       0.443500      -25.74550       -0.04630        4.19190
       157     1    16      -0.228600      -26.40450       -2.42030        3.54650
       158     1    17      -0.366600      -25.19250        1.22170        3.91250
       159     1    18      -0.439467      -26.07260       -0.35250        5.33200
       160     1    19       0.105750      -27.45860       -2.37160        3.85420
       161     1    19       0.105750      -25.85160       -2.79850        4.42000
       162     1    19       0.105750      -26.33640       -3.16700        2.72610
       163     1    20      -0.050971      -24.97030        2.06860        5.04010
       164     1    11       0.101511      -24.30240        1.57460        5.77530
       165     1    11       0.101511      -25.93310        2.33020        5.52640
       166     1    11       0.101511      -24.48000        3.00260        4.69880
       167     1    21      -0.169500      -29.65890        0.18840        1.67940
       168     1    13      -0.021600      -28.24910        0.49090        2.39510
       169     1    14       0.107725      -29.48100        0.30530        0.58540
       170     1    14       0.107725      -30.29810        1.06520        1.88520
       171     1    15       0.443500      -27.83180        1.87370        1.85310
       172     1    16      -0.228600      -28.49580        0.62210        3.91760
       173     1    17      -0.366600      -27.53240        2.00580        0.47980
       174     1    18      -0.439467      -27.78440        2.85450        2.58920
       175     1    19       0.105750      -28.34070       -0.32800        4.44180
       176     1    19       0.105750      -29.50710        0.98250        4.12050
       177     1    19       0.105750      -27.84410        1.36580        4.41250
       178     1    20      -0.050971      -27.28320        3.33400        0.01700
       179     1    11       0.101511      -27.00660        3.29660       -1.05660
       180     1    11       0.101511      -26.44090        3.79760        0.57700
       181     1    11       0.101511      -28.20040        3.95240        0.12480
       182     1    21      -0.169500      -32.17860       -0.77310        1.92550
       183     1    13      -0.021600      -30.58550       -1.10920        1.90090
       184     1    14       0.107725      -32.72630       -1.67300        1.56430
       185     1    14       0.107725      -32.35760       -0.01860        1.12720
       186     1    15       0.443500      -30.15020       -1.96740        3.09570
       187     1    16      -0.228600      -30.40350       -1.97630        0.61700
       188     1    17      -0.366600      -30.31290       -1.48050        4.40440
       189     1    18      -0.439467      -29.69320       -3.09090        2.91600
       190     1    19       0.105750      -30.76410       -1.44230       -0.28520
       191     1    19       0.105750      -30.97610       -2.92460        0.68120
       192     1    19       0.105750      -29.34380       -2.24100        0.44340
       193     1    20      -0.050971      -30.01700       -2.39050        5.46670
       194     1    11       0.101511      -30.21360       -1.89130        6.43400
       195     1    11       0.101511      -28.95320       -2.69030        5.45690
       196     1    11       0.101511      -30.65870       -3.29170        5.39940
       197     1    21      -0.169500      -34.51610        0.05250        2.87030
       198     1    13      -0.021600      -32.98570       -0.30110        3.21970
       199     1    14       0.107725      -35.03830       -0.90360        2.64870
       200     1    14       0.107725      -34.52980        0.56890        1.88680
       201     1    15       0.443500      -32.27900        0.95340        3.72390
       202     1    16      -0.228600      -33.04850       -1.48610        4.24780
       203     1    17      -0.366600      -32.28150        2.10610        2.90850
       204     1    18      -0.439467      -31.72540        0.96270        4.81530
       205     1    19       0.105750      -34.08220       -1.81750        4.46540
       206     1    19       0.105750      -32.60810       -1.24150        5.23330
       207     1    19       0.105750      -32.58180       -2.41120        3.85540
       208     1    20      -0.050971      -31.55560        3.23320        3.40510
       209     1    11       0.101511      -30.48140        2.98510        3.52610
       210     1    11       0.101511      -31.97570        3.57800        4.37480
       211     1    11       0.101511      -31.63150        4.06070        2.67110
       212     1    21      -0.169500      -37.02520        0.62350        3.69990
       213     1    13      -0.021600      -35.42550        0.89280        3.90750
       214     1    14       0.107725      -37.16450       -0.02260        2.80630
       215     1    14       0.107725      -37.51950        1.57130        3.39210
       216     1    15       0.443500      -35.21280        2.36960        3.56540
       217     1    16      -0.228600      -34.96830        0.65000        5.38440
       218     1    17      -0.366600      -35.59000        2.82110        2.28460
       219     1    18      -0.439467      -34.75290        3.15160        4.39290
       220     1    19       0.105750      -35.24320       -0.34120        5.77780
       221     1    19       0.105750      -35.34110        1.43080        6.06360
       222     1    19       0.105750      -33.90040        0.74970        5.55470
       223     1    20      -0.050971      -35.70950        4.23350        2.12840
       224     1    11       0.101511      -36.04760        4.45030        1.09460
       225     1    11       0.101511      -34.72930        4.72920        2.29270
       226     1    11       0.101511      -36.46890        4.63470        2.83470
       227     1    21      -0.169500      -39.52500        0.12750        4.54030
       228     1    13      -0.021600      -37.94310        0.03460        4.86960
       229     1    14       0.107725      -39.75690       -0.60190        3.73470
       230     1    14       0.107725      -39.72510        1.11830        4.07610
       231     1    15       0.443500      -37.71120        0.88350        6.11170
       232     1    16      -0.228600      -37.52640       -1.46640        5.02280
       233     1    17      -0.366600      -37.85460        2.28390        5.99630
       234     1    18      -0.439467      -37.38090        0.37110        7.17550
       235     1    19       0.105750      -38.19110       -2.12790        4.42940
       236     1    19       0.105750      -37.50950       -1.82560        6.06870
       237     1    19       0.105750      -36.51790       -1.67400        4.61550
       238     1    20      -0.050971      -37.50690        3.05930        7.14490
       239     1    11       0.101511      -37.67560        4.13110        6.91590
       240     1    11       0.101511      -36.43560        2.92800        7.40020
       241     1    11       0.101511      -38.13690        2.78190        8.01570
       242     1    21      -0.169500      -42.12150       -0.19910        5.19610
       243     1    13      -0.021600      -40.59740       -0.07580        5.73030
       244     1    14       0.107725      -42.10910       -0.74640        4.22780
       245     1    14       0.107725      -42.47970        0.81450        4.91200
       246     1    15       0.443500      -40.55350        1.16820        6.61550
       247     1    16      -0.228600      -40.18380       -1.34170        6.53230
       248     1    17      -0.366600      -40.90910        2.41250        6.04880
       249     1    18      -0.439467      -40.20330        1.08430        7.78660
       250     1    19       0.105750      -40.00830       -2.19990        5.85440
       251     1    19       0.105750      -40.91000       -1.66060        7.28520
       252     1    19       0.105750      -39.27860       -1.16490        7.13410
       253     1    20      -0.050971      -40.96610        3.56320        6.90150
       254     1    11       0.101511      -40.26420        4.33330        6.52360
       255     1    11       0.101511      -40.71810        3.36350        7.96360
       256     1    11       0.101511      -41.98910        3.98630        6.86620
       257     1    21      -0.169500      -44.75580       -0.50340        5.68710
       258     1    13      -0.021600      -43.24890       -0.87050        6.13420
       259     1    14       0.107725      -44.95090       -0.99180        4.70820
       260     1    14       0.107725      -44.78710        0.58220        5.45270
       261     1    15       0.443500      -43.06660       -0.35540        7.56970
       262     1    16      -0.228600      -43.07100       -2.42730        5.98840
       263     1    17      -0.366600      -43.15860        1.03250        7.81430
       264     1    18      -0.439467      -42.86860       -1.13210        8.49580
       265     1    19       0.105750      -43.85070       -2.87660        5.34150
       266     1    19       0.105750      -43.05930       -2.97600        6.94950
       267     1    19       0.105750      -42.14020       -2.71360        5.46740
       268     1    20      -0.050971      -42.96830        1.44730        9.17130
       269     1    11       0.101511      -43.02280        2.55470        9.22050
       270     1    11       0.101511      -41.97440        1.12820        9.54940
       271     1    11       0.101511      -43.75800        1.02310        9.82510
       272     1    21      -0.169500      -47.42340       -0.76400        5.91060
       273     1    13      -0.021600      -45.99660       -0.83190        6.67260
       274     1    14       0.107725      -47.29450       -1.19360        4.89300
       275     1    14       0.107725      -47.65950        0.30540        5.71920
       276     1    15       0.443500      -46.01150        0.23130        7.77160
       277     1    16      -0.228600      -45.79800       -2.23550        7.30630
       278     1    17      -0.366600      -46.15630        1.58840        7.40400
       279     1    18      -0.439467      -45.89030       -0.09430        8.94610
       280     1    19       0.105750      -45.74040       -3.02630        6.53450
       281     1    19       0.105750      -46.58700       -2.48960        8.02580
       282     1    19       0.105750      -44.90040       -2.28450        7.93730
       283     1    20      -0.050971      -46.11120        2.58500        8.43440
       284     1    11       0.101511      -45.23440        3.24150        8.26350
       285     1    11       0.101511      -46.04570        2.18200        9.46660
       286     1    11       0.101511      -47.02260        3.21170        8.37290
       287     1    21      -0.169500      -50.11070       -1.01040        5.87920
       288     1    13      -0.021600      -48.72540       -1.44820        6.57520
       289     1    14       0.107725      -50.14090       -1.49860        4.87960
       290     1    14       0.107725      -50.03940        0.07170        5.63450
       291     1    15       0.443500      -48.78940       -0.98810        8.03470
       292     1    16      -0.228600      -48.58210       -3.00580        6.38080
       293     1    17      -0.366600      -48.94750        0.39110        8.29380
       294     1    18      -0.439467      -48.70610       -1.78950        8.95640
       295     1    19       0.105750      -49.47120       -3.46830        5.91130
       296     1    19       0.105750      -48.39900       -3.56180        7.32170
       297     1    19       0.105750      -47.77710       -3.27260        5.66780
       298     1    20      -0.050971      -48.98470        0.77810        9.66980
       299     1    11       0.101511      -49.16990        1.87030        9.73220