LAMMPS data file Created by LigParGen - (Written by Leela S. Dodda)

      71 atoms
      73 bonds
     130 angles
     191 dihedrals
      43 impropers
 
      71 atom types
      73 bond types
     130 angle types
     191 dihedral types
      43 improper types
 
  -10.169760    39.830240 xlo xhi
   -5.553140    44.446860 ylo yhi
   -4.283470    45.716530 zlo zhi

Masses

       1      1.008  
       2     12.011  
       3     12.011  
       4     12.011  
       5      1.008  
       6     12.011  
       7      1.008  
       8     12.011  
       9      1.008  
      10     12.011  
      11      1.008  
      12     12.011  
      13     12.011  
      14     12.011  
      15      1.008  
      16     12.011  
      17      1.008  
      18      1.008  
      19     12.011  
      20     12.011  
      21     12.011  
      22      1.008  
      23      1.008  
      24      1.008  
      25      1.008  
      26      1.008  
      27      1.008  
      28     15.999  
      29     15.999  
      30     12.011  
      31     12.011  
      32      1.008  
      33      1.008  
      34      1.008  
      35      1.008  
      36      1.008  
      37     12.011  
      38      1.008  
      39      1.008  
      40     12.011  
      41     12.011  
      42      1.008  
      43     12.011  
      44      1.008  
      45      1.008  
      46     12.011  
      47     12.011  
      48     12.011  
      49     12.011  
      50      1.008  
      51      1.008  
      52      1.008  
      53      1.008  
      54     12.011  
      55     12.011  
      56      1.008  
      57     12.011  
      58      1.008  
      59     12.011  
      60      1.008  
      61     12.011  
      62      1.008  
      63      1.008  
      64      1.008  
      65     12.011  
      66      1.008  
      67     12.011  
      68      1.008  
      69     12.011  
      70      1.008  
      71      1.008  

Pair Coeffs 

       1      0.030  2.4200000 
       2      0.070  3.5500000 
       3      0.070  3.5500000 
       4      0.070  3.5500000 
       5      0.030  2.4200000 
       6      0.070  3.5500000 
       7      0.030  2.4200000 
       8      0.070  3.5500000 
       9      0.030  2.4200000 
      10      0.070  3.5500000 
      11      0.030  2.4200000 
      12      0.066  3.5000000 
      13      0.066  3.5000000 
      14      0.066  3.5000000 
      15      0.030  2.5000000 
      16      0.066  3.5000000 
      17      0.030  2.5000000 
      18      0.030  2.5000000 
      19      0.066  3.5000000 
      20      0.066  3.5000000 
      21      0.070  3.5500000 
      22      0.030  2.5000000 
      23      0.030  2.5000000 
      24      0.030  2.5000000 
      25      0.030  2.5000000 
      26      0.030  2.5000000 
      27      0.030  2.5000000 
      28      0.140  2.9000000 
      29      0.210  2.9600000 
      30      0.066  3.5000000 
      31      0.066  3.5000000 
      32      0.030  2.5000000 
      33      0.030  2.5000000 
      34      0.030  2.5000000 
      35      0.030  2.5000000 
      36      0.030  2.5000000 
      37      0.066  3.5000000 
      38      0.030  2.5000000 
      39      0.030  2.5000000 
      40      0.066  3.5000000 
      41      0.070  3.5500000 
      42      0.030  2.5000000 
      43      0.066  3.5000000 
      44      0.030  2.5000000 
      45      0.030  2.5000000 
      46      0.070  3.5500000 
      47      0.070  3.5500000 
      48      0.066  3.5000000 
      49      0.070  3.5500000 
      50      0.030  2.5000000 
      51      0.030  2.5000000 
      52      0.030  2.5000000 
      53      0.030  2.5000000 
      54      0.070  3.5500000 
      55      0.070  3.5500000 
      56      0.030  2.4200000 
      57      0.070  3.5500000 
      58      0.030  2.4200000 
      59      0.070  3.5500000 
      60      0.030  2.4200000 
      61      0.070  3.5500000 
      62      0.030  2.4200000 
      63      0.030  2.4200000 
      64      0.030  2.4200000 
      65      0.070  3.5500000 
      66      0.030  2.4200000 
      67      0.070  3.5500000 
      68      0.030  2.4200000 
      69      0.070  3.5500000 
      70      0.030  2.4200000 
      71      0.030  2.4200000 

Bond Coeffs 

       1   367.0000     1.0800 
       2   469.0000     1.4000 
       3   469.0000     1.4000 
       4   367.0000     1.0800 
       5   469.0000     1.4000 
       6   367.0000     1.0800 
       7   469.0000     1.4000 
       8   367.0000     1.0800 
       9   469.0000     1.4000 
      10   367.0000     1.0800 
      11   317.0000     1.5100 
      12   268.0000     1.5290 
      13   268.0000     1.5290 
      14   340.0000     1.0900 
      15   268.0000     1.5290 
      16   340.0000     1.0900 
      17   340.0000     1.0900 
      18   268.0000     1.5290 
      19   268.0000     1.5290 
      20   317.0000     1.5220 
      21   340.0000     1.0900 
      22   340.0000     1.0900 
      23   340.0000     1.0900 
      24   340.0000     1.0900 
      25   340.0000     1.0900 
      26   340.0000     1.0900 
      27   214.0000     1.3270 
      28   570.0000     1.2290 
      29   320.0000     1.4100 
      30   268.0000     1.5290 
      31   340.0000     1.0900 
      32   340.0000     1.0900 
      33   340.0000     1.0900 
      34   340.0000     1.0900 
      35   340.0000     1.0900 
      36   268.0000     1.5290 
      37   340.0000     1.0900 
      38   340.0000     1.0900 
      39   268.0000     1.5290 
      40   317.0000     1.5100 
      41   340.0000     1.0900 
      42   268.0000     1.5290 
      43   340.0000     1.0900 
      44   340.0000     1.0900 
      45   469.0000     1.4000 
      46   469.0000     1.4000 
      47   268.0000     1.5290 
      48   317.0000     1.5100 
      49   340.0000     1.0900 
      50   340.0000     1.0900 
      51   340.0000     1.0900 
      52   340.0000     1.0900 
      53   469.0000     1.4000 
      54   469.0000     1.4000 
      55   367.0000     1.0800 
      56   469.0000     1.4000 
      57   367.0000     1.0800 
      58   469.0000     1.4000 
      59   367.0000     1.0800 
      60   469.0000     1.4000 
      61   367.0000     1.0800 
      62   367.0000     1.0800 
      63   367.0000     1.0800 
      64   469.0000     1.4000 
      65   367.0000     1.0800 
      66   469.0000     1.4000 
      67   367.0000     1.0800 
      68   469.0000     1.4000 
      69   367.0000     1.0800 
      70   367.0000     1.0800 
      71   469.0000     1.4000 
      72   469.0000     1.4000 
      73   469.0000     1.4000 

Angle Coeffs 

       1     35.000    120.000
       2     35.000    120.000
       3     35.000    120.000
       4     63.000    120.000
       5     35.000    120.000
       6     63.000    120.000
       7     35.000    120.000
       8     63.000    120.000
       9     35.000    120.000
      10     70.000    120.000
      11     63.000    114.000
      12     63.000    114.000
      13     35.000    109.500
      14     58.350    112.700
      15     37.500    110.700
      16     37.500    110.700
      17     58.350    112.700
      18     58.350    112.700
      19     63.000    111.100
      20     37.500    110.700
      21     37.500    110.700
      22     37.500    110.700
      23     37.500    110.700
      24     37.500    110.700
      25     37.500    110.700
      26     81.000    111.400
      27     80.000    120.400
      28     83.000    116.900
      29     50.000    109.500
      30     35.000    109.500
      31     35.000    109.500
      32     37.500    110.700
      33     37.500    110.700
      34     37.500    110.700
      35     58.350    112.700
      36     37.500    110.700
      37     37.500    110.700
      38     58.350    112.700
      39     63.000    114.000
      40     37.500    110.700
      41     58.350    112.700
      42     37.500    110.700
      43     37.500    110.700
      44     70.000    120.000
      45     70.000    120.000
      46     58.350    112.700
      47     63.000    114.000
      48     37.500    110.700
      49     37.500    110.700
      50     37.500    110.700
      51     37.500    110.700
      52     70.000    120.000
      53     70.000    120.000
      54     35.000    120.000
      55     63.000    120.000
      56     35.000    120.000
      57     63.000    120.000
      58     35.000    120.000
      59     63.000    120.000
      60     35.000    120.000
      61     35.000    120.000
      62     35.000    120.000
      63     63.000    120.000
      64     35.000    120.000
      65     63.000    120.000
      66     35.000    120.000
      67     63.000    120.000
      68     35.000    120.000
      69     35.000    120.000
      70     35.000    120.000
      71     58.350    112.700
      72     35.000    109.500
      73     83.000    123.400
      74     35.000    109.500
      75     63.000    120.000
      76     58.350    112.700
      77     33.000    107.800
      78     37.500    110.700
      79     33.000    107.800
      80     35.000    120.000
      81     33.000    107.800
      82     33.000    107.800
      83     35.000    120.000
      84     33.000    107.800
      85     63.000    120.000
      86     70.000    120.000
      87     35.000    120.000
      88     63.000    111.100
      89     37.500    110.700
      90     37.500    110.700
      91     37.500    110.700
      92     33.000    107.800
      93     35.000    120.000
      94     37.500    110.700
      95     33.000    107.800
      96     35.000    120.000
      97     35.000    120.000
      98     33.000    107.800
      99     37.500    110.700
     100     37.500    110.700
     101     35.000    120.000
     102     35.000    120.000
     103     63.000    120.000
     104     35.000    120.000
     105     33.000    107.800
     106     33.000    107.800
     107     35.000    120.000
     108     37.500    110.700
     109     63.000    114.000
     110     37.500    110.700
     111     37.500    110.700
     112     63.000    120.000
     113     37.500    110.700
     114     33.000    107.800
     115     63.000    120.000
     116     33.000    107.800
     117     35.000    120.000
     118     63.000    111.100
     119     33.000    107.800
     120     63.000    120.000
     121     63.000    120.000
     122     63.000    120.000
     123     63.000    114.000
     124     35.000    120.000
     125     33.000    107.800
     126     33.000    107.800
     127     35.000    120.000
     128     33.000    107.800
     129     63.000    120.000
     130     37.500    110.700

Dihedral Coeffs  

       1      0.000      7.250      0.000      0.000 
       2      0.000      7.250      0.000      0.000 
       3      0.000      7.250      0.000      0.000 
       4      0.000      0.000      0.000      0.000 
       5      1.300     -0.200      0.200      0.000 
       6      1.300     -0.200      0.200      0.000 
       7      0.000      0.000      0.300      0.000 
       8      0.000      0.000      0.300      0.000 
       9      0.000      0.000     -0.553      0.000 
      10      4.669      5.124      0.000      0.000 
      11     -1.220     -0.126      0.422      0.000 
      12      0.000      0.000      0.468      0.000 
      13      1.300     -0.200      0.200      0.000 
      14      1.300     -0.200      0.200      0.000 
      15      1.300     -0.200      0.200      0.000 
      16      0.000      0.000      0.000      0.000 
      17      1.300     -0.200      0.200      0.000 
      18      0.000      0.000      0.300      0.000 
      19      0.000      0.000      0.000      0.000 
      20      0.000      7.250      0.000      0.000 
      21      0.000      7.250      0.000      0.000 
      22      0.000      7.250      0.000      0.000 
      23      0.000      7.250      0.000      0.000 
      24      0.000      7.250      0.000      0.000 
      25      0.000      7.250      0.000      0.000 
      26      0.000      0.000      0.300      0.000 
      27      0.000      0.000      0.300      0.000 
      28      0.000      7.250      0.000      0.000 
      29      0.000      0.000      0.300      0.000 
      30      0.000      0.000     -0.100      0.000 
      31      0.000      7.250      0.000      0.000 
      32      0.000      0.000     -0.100      0.000 
      33      0.000      7.250      0.000      0.000 
      34      0.000      0.000      0.000      0.000 
      35      0.000      7.250      0.000      0.000 
      36      0.000      0.000      0.000      0.000 
      37      0.000      0.000      0.000      0.000 
      38      0.000      7.250      0.000      0.000 
      39      0.000      0.000      0.462      0.000 
      40      0.000      0.000      0.300      0.000 
      41      0.000      0.000      0.300      0.000 
      42      0.000      7.250      0.000      0.000 
      43      0.000      7.250      0.000      0.000 
      44      0.000      0.000      0.462      0.000 
      45      0.000      0.000      0.300      0.000 
      46      0.000      0.000      0.300      0.000 
      47      0.000      0.000      0.300      0.000 
      48      0.000      7.250      0.000      0.000 
      49      0.000      7.250      0.000      0.000 
      50      0.000      7.250      0.000      0.000 
      51      0.000      7.250      0.000      0.000 
      52      0.000      0.000      0.000      0.000 
      53      0.000      0.000      0.300      0.000 
      54      0.000      0.000      0.300      0.000 
      55      0.000      0.000      0.300      0.000 
      56      0.000      0.000      0.462      0.000 
      57      0.000      7.250      0.000      0.000 
      58      0.000      7.250      0.000      0.000 
      59      0.000      7.250      0.000      0.000 
      60      0.000      0.000      0.300      0.000 
      61      0.000      0.000      0.300      0.000 
      62      0.000      7.250      0.000      0.000 
      63      0.000      7.250      0.000      0.000 
      64      0.000      0.000      0.300      0.000 
      65      0.000      0.000      0.300      0.000 
      66      0.000      7.250      0.000      0.000 
      67      0.000      0.000      0.300      0.000 
      68      0.000      0.000     -0.100      0.000 
      69      0.000      0.000      0.468      0.000 
      70      0.000      0.000     -0.100      0.000 
      71      0.000      0.000      0.300      0.000 
      72      0.000      7.250      0.000      0.000 
      73      0.000      0.000      0.300      0.000 
      74      0.000      7.250      0.000      0.000 
      75      0.000      7.250      0.000      0.000 
      76      0.000      0.000      0.000      0.000 
      77      0.000      0.000      0.462      0.000 
      78      0.000      0.000      0.000      0.000 
      79      0.000      7.250      0.000      0.000 
      80      0.000      7.250      0.000      0.000 
      81      0.000      7.250      0.000      0.000 
      82      0.000      0.000     -0.553      0.000 
      83      0.000      0.000      0.300      0.000 
      84      0.000      0.000      0.300      0.000 
      85      0.000      0.000      0.462      0.000 
      86      1.300     -0.200      0.200      0.000 
      87      0.000      7.250      0.000      0.000 
      88      0.000      0.000      0.300      0.000 
      89      0.000      7.250      0.000      0.000 
      90      0.000      0.000      0.300      0.000 
      91      0.000      7.250      0.000      0.000 
      92      0.000      0.000      0.462      0.000 
      93      0.000      7.250      0.000      0.000 
      94      0.000      7.250      0.000      0.000 
      95      0.000      0.000      0.000      0.000 
      96      0.000      7.250      0.000      0.000 
      97      0.000      0.000      0.300      0.000 
      98      0.000      7.250      0.000      0.000 
      99      0.000      7.250      0.000      0.000 
     100      0.000      7.250      0.000      0.000 
     101      0.000      0.000      0.300      0.000 
     102      1.300     -0.200      0.200      0.000 
     103      0.000      7.250      0.000      0.000 
     104      0.000      0.000      0.000      0.000 
     105      0.000      7.250      0.000      0.000 
     106      0.000      7.250      0.000      0.000 
     107      0.000      0.000      0.462      0.000 
     108      0.000      0.000     -0.100      0.000 
     109      0.000      0.000      0.462      0.000 
     110      0.000      7.250      0.000      0.000 
     111      0.000      7.250      0.000      0.000 
     112      0.000      7.250      0.000      0.000 
     113      0.000      0.000      0.300      0.000 
     114      0.000      0.000      0.000      0.000 
     115      0.000      7.250      0.000      0.000 
     116      0.000      7.250      0.000      0.000 
     117      0.000      7.250      0.000      0.000 
     118      0.000      0.000      0.300      0.000 
     119      0.000      7.250      0.000      0.000 
     120      0.000      7.250      0.000      0.000 
     121      0.000      0.000      0.300      0.000 
     122      0.000      7.250      0.000      0.000 
     123      0.000      0.000     -0.100      0.000 
     124      0.000      0.000      0.300      0.000 
     125      1.300     -0.200      0.200      0.000 
     126      0.000      0.000      0.300      0.000 
     127      0.000      0.000      0.300      0.000 
     128      0.000      0.000      0.300      0.000 
     129      0.000      7.250      0.000      0.000 
     130      0.000      7.250      0.000      0.000 
     131      0.000      0.000      0.300      0.000 
     132      0.000      0.000      0.300      0.000 
     133      0.000      0.000      0.468      0.000 
     134      0.000      0.000      0.000      0.000 
     135      0.000      0.000      0.198      0.000 
     136      0.000      0.000      0.300      0.000 
     137      1.300     -0.200      0.200      0.000 
     138      0.000      7.250      0.000      0.000 
     139      0.000      0.000      0.000      0.000 
     140      0.000      0.000      0.300      0.000 
     141      0.000      0.000      0.300      0.000 
     142      0.000      0.000      0.300      0.000 
     143      0.000      7.250      0.000      0.000 
     144      0.000      0.000      0.300      0.000 
     145      0.000      0.000      0.300      0.000 
     146      0.000      0.000      0.300      0.000 
     147      0.000      0.000      0.300      0.000 
     148      0.000      0.000      0.000      0.000 
     149      0.000      0.000      0.462      0.000 
     150      0.000      7.250      0.000      0.000 
     151      0.000      7.250      0.000      0.000 
     152      0.000      7.250      0.000      0.000 
     153      0.000      0.000      0.000      0.000 
     154      0.000      0.000      0.300      0.000 
     155      1.300     -0.200      0.200      0.000 
     156      0.000      0.000      0.000      0.000 
     157      0.000      7.250      0.000      0.000 
     158      0.000      0.000      0.300      0.000 
     159      0.000      7.250      0.000      0.000 
     160      0.000      7.250      0.000      0.000 
     161      0.000      7.250      0.000      0.000 
     162      0.000      7.250      0.000      0.000 
     163      0.000      0.000      0.300      0.000 
     164      0.000      0.000      0.000      0.000 
     165      0.000      0.000      0.300      0.000 
     166      0.000      7.250      0.000      0.000 
     167      0.000      0.000      0.198      0.000 
     168      0.000      7.250      0.000      0.000 
     169     -2.060     -0.313      0.315      0.000 
     170      0.000      0.000     -0.100      0.000 
     171      0.000      0.000      0.000      0.000 
     172      0.000      0.000      0.462      0.000 
     173      0.000      5.124      0.000      0.000 
     174      1.300     -0.200      0.200      0.000 
     175      0.000      7.250      0.000      0.000 
     176      0.000      7.250      0.000      0.000 
     177      0.000      0.000      0.462      0.000 
     178      0.000      7.250      0.000      0.000 
     179      0.000      7.250      0.000      0.000 
     180      0.000      0.000      0.300      0.000 
     181      0.000      0.000      0.300      0.000 
     182      0.000      0.000      0.000      0.000 
     183      0.000      0.000     -0.553      0.000 
     184      0.000      7.250      0.000      0.000 
     185      0.000      0.000      0.300      0.000 
     186      0.000      0.000     -0.100      0.000 
     187      0.000      0.000      0.300      0.000 
     188      0.000      0.000      0.300      0.000 
     189      0.000      0.000      0.462      0.000 
     190      0.000      0.000      0.462      0.000 
     191      0.000      0.000      0.000      0.000 

Improper Coeffs 

       1      2.500      -1       2 
       2      2.500      -1       2 
       3      2.500      -1       2 
       4      2.500      -1       2 
       5      2.500      -1       2 
       6      2.500      -1       2 
       7      0.000      -1       2 
       8      0.000      -1       2 
       9      0.000      -1       2 
      10      0.000      -1       2 
      11      0.000      -1       2 
      12      0.000      -1       2 
      13      0.000      -1       2 
      14      0.000      -1       2 
      15      0.000      -1       2 
      16      0.000      -1       2 
      17     10.500      -1       2 
      18      0.000      -1       2 
      19      0.000      -1       2 
      20      0.000      -1       2 
      21      0.000      -1       2 
      22      0.000      -1       2 
      23      0.000      -1       2 
      24      0.000      -1       2 
      25      0.000      -1       2 
      26      0.000      -1       2 
      27      0.000      -1       2 
      28      2.500      -1       2 
      29      0.000      -1       2 
      30      0.000      -1       2 
      31      0.000      -1       2 
      32      0.000      -1       2 
      33      2.500      -1       2 
      34      2.500      -1       2 
      35      2.500      -1       2 
      36      2.500      -1       2 
      37      2.500      -1       2 
      38      2.500      -1       2 
      39      2.500      -1       2 
      40      2.500      -1       2 
      41      2.500      -1       2 
      42      2.500      -1       2 
      43      2.500      -1       2 

Atoms 

     1      1      1 0.14600000    1.000  1.00000  0.00000
     2      1      2 -0.14970000   -0.083  1.00000  0.00000
     3      1      3 -0.14660000   -0.780  1.00000  1.21046
     4      1      4 -0.14380000   -0.780  0.99847 -1.21021
     5      1      5 0.14890000   -0.237  1.00000  2.14746
     6      1      6 -0.13790000   -2.179  1.00153  1.21208
     7      1      7 0.14690000   -0.237  0.99729 -2.14722
     8      1      8 -0.13990000   -2.178  1.00000 -1.21182
     9      1      9 0.15230000   -2.706  1.00032  2.15721
    10      1     10 -0.08050000   -2.893  1.00615 -0.00068
    11      1     11 0.14500000   -2.704  0.99758 -2.15824
    12      1     12 -0.06490000   -4.414  1.01926 -0.01129
    13      1     13 -0.16240000   -4.977 -0.25779  0.68908
    14      1     14 -0.16650000   -4.963  2.31438  0.65025
    15      1     15 0.10350000   -4.745  1.02064 -1.06405
    16      1     16 -0.03260000   -6.157 -0.99150 -0.03715
    17      1     17 0.11430000   -5.294  0.00614  1.72323
    18      1     18 0.11430000   -4.159 -1.00272  0.81894
    19      1     19 -0.23890000   -7.330 -0.02138 -0.29979
    20      1     20 -0.23820000   -5.670 -1.58221 -1.38159
    21      1     21 0.43780000   -6.677 -2.14706  0.82797
    22      1     22 0.09690000   -8.183 -0.55432 -0.77194
    23      1     23 0.09690000   -7.037  0.79695 -0.98975
    24      1     24 0.09690000   -7.685  0.42172  0.65532
    25      1     25 0.09720000   -5.379 -0.79351 -2.10390
    26      1     26 0.09720000   -6.475 -2.17891 -1.86313
    27      1     27 0.09720000   -4.793 -2.24652 -1.21899
    28      1     28 -0.37500000   -7.745 -2.93072  0.34341
    29      1     29 -0.45140000   -6.173 -2.38709  1.92011
    30      1     30 0.00750000   -8.178 -3.99018  1.19777
    31      1     31 -0.25040000   -9.327 -4.72563  0.52927
    32      1     32 0.09970000   -8.528 -3.57987  2.17227
    33      1     33 0.09970000   -7.344 -4.70559  1.37656
    34      1     34 0.09860000   -8.991 -5.14647 -0.44190
    35      1     35 0.09860000  -10.170 -4.02472  0.34981
    36      1     36 0.09860000   -9.675 -5.55314  1.18304
    37      1     37 -0.07830000   -4.511  3.62316 -0.04921
    38      1     38 0.09730000   -6.072  2.28306  0.67354
    39      1     39 0.09730000   -4.629  2.33910  1.71104
    40      1     40 -0.15920000   -5.265  3.85738 -1.38610
    41      1     41 -0.07420000   -4.685  4.80134  0.89587
    42      1     42 0.12770000   -3.431  3.52171 -0.28303
    43      1     43 -0.07910000   -4.727  5.07042 -2.18352
    44      1     44 0.08950000   -6.346  4.00720 -1.17904
    45      1     45 0.08950000   -5.192  2.95539 -2.02588
    46      1     46 -0.14590000   -5.958  5.16749  1.37233
    47      1     47 -0.14240000   -3.563  5.54254  1.30778
    48      1     48 -0.23490000   -5.568  5.30529 -3.44486
    49      1     49 -0.06950000   -3.261  4.90307 -2.54464
    50      1     50 0.11430000   -4.856  5.97745 -1.55203
    51      1     51 0.08590000   -6.619  5.52812 -3.16371
    52      1     52 0.08590000   -5.561  4.41048 -4.10272
    53      1     53 0.08590000   -5.169  6.17410 -4.01128
    54      1     54 -0.14290000   -2.827  3.82882 -3.34637
    55      1     55 -0.14420000   -2.312  5.82911 -2.07503
    56      1     56 0.14450000   -3.533  3.09981 -3.72154
    57      1     57 -0.14750000   -1.474  3.68878 -3.66797
    58      1     58 0.15160000   -2.617  6.66369 -1.45614
    59      1     59 -0.14660000   -0.960  5.68362 -2.40010
    60      1     60 0.14440000   -1.149  2.85999 -4.28347
    61      1     61 -0.15030000   -0.543  4.61535 -3.19502
    62      1     62 0.14710000   -0.237  6.40049 -2.03314
    63      1     63 0.14520000    0.504  4.50551 -3.44633
    64      1     64 0.14620000   -6.835  4.61161  1.07023
    65      1     65 -0.14800000   -6.103  6.25267  2.24252
    66      1     66 0.15530000   -2.574  5.27793  0.95466
    67      1     67 -0.14920000   -3.712  6.62886  2.17553
    68      1     68 0.14720000   -7.087  6.52756  2.60285
    69      1     69 -0.15190000   -4.981  6.97922  2.64686
    70      1     70 0.14780000   -2.842  7.19719  2.48255
    71      1     71 0.14610000   -5.093  7.81410  3.32709

Bonds 

     1      1      2      1
     2      2      3      2
     3      3      4      2
     4      4      5      3
     5      5      6      3
     6      6      7      4
     7      7      8      4
     8      8      9      6
     9      9     10      6
    10     10     11      8
    11     11     12     10
    12     12     13     12
    13     13     14     12
    14     14     15     12
    15     15     16     13
    16     16     17     13
    17     17     18     13
    18     18     19     16
    19     19     20     16
    20     20     21     16
    21     21     22     19
    22     22     23     19
    23     23     24     19
    24     24     25     20
    25     25     26     20
    26     26     27     20
    27     27     28     21
    28     28     29     21
    29     29     30     28
    30     30     31     30
    31     31     32     30
    32     32     33     30
    33     33     34     31
    34     34     35     31
    35     35     36     31
    36     36     37     14
    37     37     38     14
    38     38     39     14
    39     39     40     37
    40     40     41     37
    41     41     42     37
    42     42     43     40
    43     43     44     40
    44     44     45     40
    45     45     46     41
    46     46     47     41
    47     47     48     43
    48     48     49     43
    49     49     50     43
    50     50     51     48
    51     51     52     48
    52     52     53     48
    53     53     54     49
    54     54     55     49
    55     55     56     54
    56     56     57     54
    57     57     58     55
    58     58     59     55
    59     59     60     57
    60     60     61     57
    61     61     62     59
    62     62     63     61
    63     63     64     46
    64     64     65     46
    65     65     66     47
    66     66     67     47
    67     67     68     65
    68     68     69     65
    69     69     70     67
    70     70     71     69
    71     71     10      8
    72     72     61     59
    73     73     69     67

Angles 

     1      1      1      2      3
     2      2      1      2      4
     3      3      2      3      5
     4      4      2      3      6
     5      5      2      4      7
     6      6      2      4      8
     7      7      3      6      9
     8      8      3      6     10
     9      9      4      8     11
    10     10      6     10     12
    11     11     10     12     13
    12     12     10     12     14
    13     13     10     12     15
    14     14     12     13     16
    15     15     12     13     17
    16     16     12     13     18
    17     17     13     16     19
    18     18     13     16     20
    19     19     13     16     21
    20     20     16     19     22
    21     21     16     19     23
    22     22     16     19     24
    23     23     16     20     25
    24     24     16     20     26
    25     25     16     20     27
    26     26     16     21     28
    27     27     16     21     29
    28     28     21     28     30
    29     29     28     30     31
    30     30     28     30     32
    31     31     28     30     33
    32     32     30     31     34