LAMMPS data file Created by LigParGen - (Written by Leela S. Dodda)

      82 atoms
      86 bonds
     150 angles
     231 dihedrals
      50 impropers
 
      82 atom types
      86 bond types
     150 angle types
     231 dihedral types
      50 improper types
 
  -10.575060    39.424940 xlo xhi
   -5.883070    44.116930 ylo yhi
   -4.576790    45.423210 zlo zhi

Masses

       1      1.008  
       2     12.011  
       3     12.011  
       4     12.011  
       5      1.008  
       6     12.011  
       7      1.008  
       8     12.011  
       9      1.008  
      10     12.011  
      11      1.008  
      12     12.011  
      13     12.011  
      14     12.011  
      15      1.008  
      16     12.011  
      17      1.008  
      18      1.008  
      19     12.011  
      20     12.011  
      21      1.008  
      22     12.011  
      23      1.008  
      24      1.008  
      25     12.011  
      26     12.011  
      27     12.011  
      28      1.008  
      29      1.008  
      30     12.011  
      31     12.011  
      32      1.008  
      33     12.011  
      34      1.008  
      35     12.011  
      36      1.008  
      37     12.011  
      38      1.008  
      39      1.008  
      40      1.008  
      41     12.011  
      42      1.008  
      43     12.011  
      44      1.008  
      45     12.011  
      46      1.008  
      47      1.008  
      48     12.011  
      49      1.008  
      50      1.008  
      51     12.011  
      52     12.011  
      53      1.008  
      54     12.011  
      55      1.008  
      56      1.008  
      57     12.011  
      58     12.011  
      59     12.011  
      60     12.011  
      61      1.008  
      62      1.008  
      63      1.008  
      64      1.008  
      65     12.011  
      66     12.011  
      67      1.008  
      68     12.011  
      69      1.008  
      70     12.011  
      71      1.008  
      72     12.011  
      73      1.008  
      74      1.008  
      75      1.008  
      76     12.011  
      77      1.008  
      78     12.011  
      79      1.008  
      80     12.011  
      81      1.008  
      82      1.008  

Pair Coeffs 

       1      0.030  2.4200000 
       2      0.070  3.5500000 
       3      0.070  3.5500000 
       4      0.070  3.5500000 
       5      0.030  2.4200000 
       6      0.070  3.5500000 
       7      0.030  2.4200000 
       8      0.070  3.5500000 
       9      0.030  2.4200000 
      10      0.070  3.5500000 
      11      0.030  2.4200000 
      12      0.066  3.5000000 
      13      0.066  3.5000000 
      14      0.066  3.5000000 
      15      0.030  2.5000000 
      16      0.066  3.5000000 
      17      0.030  2.5000000 
      18      0.030  2.5000000 
      19      0.066  3.5000000 
      20      0.070  3.5500000 
      21      0.030  2.5000000 
      22      0.066  3.5000000 
      23      0.030  2.5000000 
      24      0.030  2.5000000 
      25      0.070  3.5500000 
      26      0.070  3.5500000 
      27      0.070  3.5500000 
      28      0.030  2.5000000 
      29      0.030  2.5000000 
      30      0.070  3.5500000 
      31      0.070  3.5500000 
      32      0.030  2.4200000 
      33      0.070  3.5500000 
      34      0.030  2.4200000 
      35      0.070  3.5500000 
      36      0.030  2.4200000 
      37      0.070  3.5500000 
      38      0.030  2.4200000 
      39      0.030  2.4200000 
      40      0.030  2.4200000 
      41      0.070  3.5500000 
      42      0.030  2.4200000 
      43      0.070  3.5500000 
      44      0.030  2.4200000 
      45      0.070  3.5500000 
      46      0.030  2.4200000 
      47      0.030  2.4200000 
      48      0.066  3.5000000 
      49      0.030  2.5000000 
      50      0.030  2.5000000 
      51      0.066  3.5000000 
      52      0.070  3.5500000 
      53      0.030  2.5000000 
      54      0.066  3.5000000 
      55      0.030  2.5000000 
      56      0.030  2.5000000 
      57      0.070  3.5500000 
      58      0.070  3.5500000 
      59      0.066  3.5000000 
      60      0.070  3.5500000 
      61      0.030  2.5000000 
      62      0.030  2.5000000 
      63      0.030  2.5000000 
      64      0.030  2.5000000 
      65      0.070  3.5500000 
      66      0.070  3.5500000 
      67      0.030  2.4200000 
      68      0.070  3.5500000 
      69      0.030  2.4200000 
      70      0.070  3.5500000 
      71      0.030  2.4200000 
      72      0.070  3.5500000 
      73      0.030  2.4200000 
      74      0.030  2.4200000 
      75      0.030  2.4200000 
      76      0.070  3.5500000 
      77      0.030  2.4200000 
      78      0.070  3.5500000 
      79      0.030  2.4200000 
      80      0.070  3.5500000 
      81      0.030  2.4200000 
      82      0.030  2.4200000 

Bond Coeffs 

       1   367.0000     1.0800 
       2   469.0000     1.4000 
       3   469.0000     1.4000 
       4   367.0000     1.0800 
       5   469.0000     1.4000 
       6   367.0000     1.0800 
       7   469.0000     1.4000 
       8   367.0000     1.0800 
       9   469.0000     1.4000 
      10   367.0000     1.0800 
      11   317.0000     1.5100 
      12   268.0000     1.5290 
      13   268.0000     1.5290 
      14   340.0000     1.0900 
      15   268.0000     1.5290 
      16   340.0000     1.0900 
      17   340.0000     1.0900 
      18   268.0000     1.5290 
      19   317.0000     1.5100 
      20   340.0000     1.0900 
      21   268.0000     1.5290 
      22   340.0000     1.0900 
      23   340.0000     1.0900 
      24   469.0000     1.4000 
      25   469.0000     1.4000 
      26   317.0000     1.5100 
      27   340.0000     1.0900 
      28   340.0000     1.0900 
      29   469.0000     1.4000 
      30   469.0000     1.4000 
      31   367.0000     1.0800 
      32   469.0000     1.4000 
      33   367.0000     1.0800 
      34   469.0000     1.4000 
      35   367.0000     1.0800 
      36   469.0000     1.4000 
      37   367.0000     1.0800 
      38   367.0000     1.0800 
      39   367.0000     1.0800 
      40   469.0000     1.4000 
      41   367.0000     1.0800 
      42   469.0000     1.4000 
      43   367.0000     1.0800 
      44   469.0000     1.4000 
      45   367.0000     1.0800 
      46   367.0000     1.0800 
      47   268.0000     1.5290 
      48   340.0000     1.0900 
      49   340.0000     1.0900 
      50   268.0000     1.5290 
      51   317.0000     1.5100 
      52   340.0000     1.0900 
      53   268.0000     1.5290 
      54   340.0000     1.0900 
      55   340.0000     1.0900 
      56   469.0000     1.4000 
      57   469.0000     1.4000 
      58   268.0000     1.5290 
      59   317.0000     1.5100 
      60   340.0000     1.0900 
      61   340.0000     1.0900 
      62   340.0000     1.0900 
      63   340.0000     1.0900 
      64   469.0000     1.4000 
      65   469.0000     1.4000 
      66   367.0000     1.0800 
      67   469.0000     1.4000 
      68   367.0000     1.0800 
      69   469.0000     1.4000 
      70   367.0000     1.0800 
      71   469.0000     1.4000 
      72   367.0000     1.0800 
      73   367.0000     1.0800 
      74   367.0000     1.0800 
      75   469.0000     1.4000 
      76   367.0000     1.0800 
      77   469.0000     1.4000 
      78   367.0000     1.0800 
      79   469.0000     1.4000 
      80   367.0000     1.0800 
      81   367.0000     1.0800 
      82   469.0000     1.4000 
      83   469.0000     1.4000 
      84   469.0000     1.4000 
      85   469.0000     1.4000 
      86   469.0000     1.4000 

Angle Coeffs 

       1     35.000    120.000
       2     35.000    120.000
       3     35.000    120.000
       4     63.000    120.000
       5     35.000    120.000
       6     63.000    120.000
       7     35.000    120.000
       8     63.000    120.000
       9     35.000    120.000
      10     70.000    120.000
      11     63.000    114.000
      12     63.000    114.000
      13     35.000    109.500
      14     58.350    112.700
      15     37.500    110.700
      16     37.500    110.700
      17     58.350    112.700
      18     63.000    114.000
      19     37.500    110.700
      20     58.350    112.700
      21     37.500    110.700
      22     37.500    110.700
      23     70.000    120.000
      24     70.000    120.000
      25     63.000    114.000
      26     37.500    110.700
      27     37.500    110.700
      28     70.000    120.000
      29     70.000    120.000
      30     35.000    120.000
      31     63.000    120.000
      32     35.000    120.000
      33     63.000    120.000
      34     35.000    120.000
      35     63.000    120.000
      36     35.000    120.000
      37     35.000    120.000
      38     35.000    120.000
      39     63.000    120.000
      40     35.000    120.000
      41     63.000    120.000
      42     35.000    120.000
      43     63.000    120.000
      44     35.000    120.000
      45     35.000    120.000
      46     58.350    112.700
      47     37.500    110.700
      48     37.500    110.700
      49     58.350    112.700
      50     63.000    114.000
      51     37.500    110.700
      52     58.350    112.700
      53     37.500    110.700
      54     37.500    110.700
      55     70.000    120.000
      56     70.000    120.000
      57     58.350    112.700
      58     63.000    114.000
      59     37.500    110.700
      60     37.500    110.700
      61     37.500    110.700
      62     37.500    110.700
      63     70.000    120.000
      64     70.000    120.000
      65     35.000    120.000
      66     63.000    120.000
      67     35.000    120.000
      68     63.000    120.000
      69     35.000    120.000
      70     63.000    120.000
      71     35.000    120.000
      72     35.000    120.000
      73     35.000    120.000
      74     63.000    120.000
      75     35.000    120.000
      76     63.000    120.000
      77     35.000    120.000
      78     63.000    120.000
      79     35.000    120.000
      80     35.000    120.000
      81     35.000    120.000
      82     63.000    120.000
      83     58.350    112.700
      84     35.000    120.000
      85     35.000    120.000
      86     35.000    120.000
      87     35.000    109.500
      88     63.000    120.000
      89     63.000    114.000
      90     35.000    109.500
      91     63.000    120.000
      92     33.000    107.800
      93     35.000    120.000
      94     63.000    114.000
      95     35.000    120.000
      96     63.000    120.000
      97     70.000    120.000
      98     63.000    120.000
      99     35.000    120.000
     100     33.000    107.800
     101     35.000    120.000
     102     35.000    120.000
     103     35.000    120.000
     104     35.000    120.000
     105     35.000    109.500
     106     37.500    110.700
     107     35.000    120.000
     108     37.500    110.700
     109     37.500    110.700
     110     63.000    120.000
     111     37.500    110.700
     112     37.500    110.700
     113     63.000    120.000
     114     37.500    110.700
     115     35.000    120.000
     116     35.000    120.000
     117     35.000    120.000
     118     35.000    120.000
     119     63.000    120.000
     120     37.500    110.700
     121     35.000    120.000
     122     37.500    110.700
     123     35.000    120.000
     124     33.000    107.800
     125     35.000    109.500
     126     63.000    120.000
     127     63.000    120.000
     128     37.500    110.700
     129     33.000    107.800
     130     63.000    114.000
     131     63.000    120.000
     132     63.000    120.000
     133     37.500    110.700
     134     63.000    120.000
     135     35.000    120.000
     136     37.500    110.700
     137     33.000    107.800
     138     35.000    109.500
     139     33.000    107.800
     140     35.000    120.000
     141     35.000    120.000
     142     37.500    110.700
     143     35.000    120.000
     144     33.000    107.800
     145     63.000    120.000
     146     35.000    120.000
     147     63.000    120.000
     148     37.500    110.700
     149     35.000    120.000
     150     33.000    107.800

Dihedral Coeffs  

       1      0.000      7.250      0.000      0.000 
       2      0.000      7.250      0.000      0.000 
       3      0.000      7.250      0.000      0.000 
       4      0.000      0.000      0.000      0.000 
       5      1.300     -0.200      0.200      0.000 
       6      1.300     -0.200      0.200      0.000 
       7      1.300     -0.200      0.200      0.000 
       8      0.000      0.000      0.000      0.000 
       9      1.300     -0.200      0.200      0.000 
      10      0.000      0.000      0.000      0.000 
      11      0.000      7.250      0.000      0.000 
      12      0.000      7.250      0.000      0.000 
      13      0.000      7.250      0.000      0.000 
      14      0.000      7.250      0.000      0.000 
      15      0.000      7.250      0.000      0.000 
      16      0.000      7.250      0.000      0.000 
      17      1.300     -0.200      0.200      0.000 
      18      1.300     -0.200      0.200      0.000 
      19      1.300     -0.200      0.200      0.000 
      20      0.000      0.000      0.000      0.000 
      21      1.300     -0.200      0.200      0.000 
      22      0.000      0.000      0.300      0.000 
      23      0.000      0.000      0.000      0.000 
      24      0.000      7.250      0.000      0.000 
      25      0.000      7.250      0.000      0.000 
      26      0.000      7.250      0.000      0.000 
      27      0.000      7.250      0.000      0.000 
      28      0.000      7.250      0.000      0.000 
      29      0.000      7.250      0.000      0.000 
      30      0.000      0.000      0.300      0.000 
      31      0.000      0.000      0.300      0.000 
      32      0.000      0.000      0.462      0.000 
      33      0.000      7.250      0.000      0.000 
      34      0.000      0.000      0.000      0.000 
      35      0.000      7.250      0.000      0.000 
      36      0.000      0.000      0.300      0.000 
      37      0.000      7.250      0.000      0.000 
      38      0.000      7.250      0.000      0.000 
      39      0.000      0.000      0.000      0.000 
      40      0.000      7.250      0.000      0.000 
      41      0.000      0.000      0.000      0.000 
      42      0.000      7.250      0.000      0.000 
      43      0.000      0.000      0.300      0.000 
      44      0.000      0.000      0.462      0.000 
      45      0.000      0.000      0.462      0.000 
      46      0.000      0.000      0.300      0.000 
      47      0.000      0.000      0.300      0.000 
      48      0.000      0.000      0.300      0.000 
      49      0.000      7.250      0.000      0.000 
      50      0.000      0.000      0.000      0.000 
      51      0.000      7.250      0.000      0.000 
      52      0.000      0.000      0.300      0.000 
      53      0.000      0.000      0.462      0.000 
      54      0.000      0.000      0.000      0.000 
      55      0.000      0.000      0.462      0.000 
      56      0.000      7.250      0.000      0.000 
      57      0.000      7.250      0.000      0.000 
      58      0.000      0.000      0.300      0.000 
      59      0.000      0.000      0.300      0.000 
      60      0.000      0.000      0.300      0.000 
      61      0.000      7.250      0.000      0.000 
      62      0.000      7.250      0.000      0.000 
      63      0.000      0.000      0.300      0.000 
      64      0.000      7.250      0.000      0.000 
      65      0.000      0.000      0.300      0.000 
      66      0.000      7.250      0.000      0.000 
      67      0.000      0.000      0.462      0.000 
      68      0.000      0.000      0.300      0.000 
      69      0.000      7.250      0.000      0.000 
      70      0.000      7.250      0.000      0.000 
      71      0.000      7.250      0.000      0.000 
      72      0.000      0.000      0.000      0.000 
      73      0.000      0.000      0.300      0.000 
      74      0.000      7.250      0.000      0.000 
      75      0.000      7.250      0.000      0.000 
      76      0.000      7.250      0.000      0.000 
      77      0.000      7.250      0.000      0.000 
      78      0.000      7.250      0.000      0.000 
      79      0.000      0.000      0.462      0.000 
      80      0.000      0.000      0.300      0.000 
      81      0.000      0.000      0.300      0.000 
      82      0.000      7.250      0.000      0.000 
      83      0.000      0.000      0.000      0.000 
      84      0.000      7.250      0.000      0.000 
      85      0.000      0.000      0.300      0.000 
      86      0.000      7.250      0.000      0.000 
      87      0.000      0.000      0.300      0.000 
      88      0.000      7.250      0.000      0.000 
      89      0.000      0.000      0.000      0.000 
      90      0.000      0.000      0.300      0.000 
      91      0.000      0.000      0.000      0.000 
      92      0.000      0.000      0.000      0.000 
      93      0.000      7.250      0.000      0.000 
      94      0.000      7.250      0.000      0.000 
      95      0.000      7.250      0.000      0.000 
      96      0.000      7.250      0.000      0.000 
      97      0.000      7.250      0.000      0.000 
      98      0.000      7.250      0.000      0.000 
      99      0.000      7.250      0.000      0.000 
     100      0.000      7.250      0.000      0.000 
     101      0.000      7.250      0.000      0.000 
     102      0.000      0.000      0.300      0.000 
     103      0.000      0.000      0.000      0.000 
     104      0.000      0.000      0.000      0.000 
     105      0.000      7.250      0.000      0.000 
     106      0.000      7.250      0.000      0.000 
     107      0.000      7.250      0.000      0.000 
     108      0.000      0.000      0.000      0.000 
     109      0.000      7.250      0.000      0.000 
     110      0.000      7.250      0.000      0.000 
     111      0.000      7.250      0.000      0.000 
     112      0.000      7.250      0.000      0.000 
     113      0.000      7.250      0.000      0.000 
     114      1.300     -0.200      0.200      0.000 
     115      1.300     -0.200      0.200      0.000 
     116      0.000      0.000      0.462      0.000 
     117      0.000      0.000      0.000      0.000 
     118      0.000      7.250      0.000      0.000 
     119      0.000      7.250      0.000      0.000 
     120      0.000      0.000      0.300      0.000 
     121      0.000      0.000      0.300      0.000 
     122      0.000      7.250      0.000      0.000 
     123      0.000      0.000      0.000      0.000 
     124      0.000      7.250      0.000      0.000 
     125      0.000      7.250      0.000      0.000 
     126      0.000      0.000      0.000      0.000 
     127      0.000      0.000      0.462      0.000 
     128      0.000      0.000      0.300      0.000 
     129      0.000      0.000      0.462      0.000 
     130      0.000      7.250      0.000      0.000 
     131      0.000      7.250      0.000      0.000 
     132      0.000      7.250      0.000      0.000 
     133      1.300     -0.200      0.200      0.000 
     134      0.000      0.000      0.000      0.000 
     135      0.000      7.250      0.000      0.000 
     136      0.000      7.250      0.000      0.000 
     137      0.000      7.250      0.000      0.000 
     138      0.000      7.250      0.000      0.000 
     139      0.000      7.250      0.000      0.000 
     140      0.000      0.000      0.000      0.000 
     141      0.000      7.250      0.000      0.000 
     142      0.000      7.250      0.000      0.000 
     143      0.000      7.250      0.000      0.000 
     144      0.000      7.250      0.000      0.000 
     145      0.000      0.000      0.300      0.000 
     146      0.000      0.000      0.462      0.000 
     147      0.000      0.000      0.300      0.000 
     148      0.000      7.250      0.000      0.000 
     149      0.000      0.000      0.000      0.000 
     150      0.000      7.250      0.000      0.000 
     151      0.000      0.000      0.300      0.000 
     152      0.000      7.250      0.000      0.000 
     153      0.000      0.000      0.300      0.000 
     154      0.000      7.250      0.000      0.000 
     155      0.000      7.250      0.000      0.000 
     156      0.000      7.250      0.000      0.000 
     157      0.000      7.250      0.000      0.000 
     158      0.000      7.250      0.000      0.000 
     159      0.000      7.250      0.000      0.000 
     160      0.000      7.250      0.000      0.000 
     161      1.300     -0.200      0.200      0.000 
     162      0.000      0.000      0.000      0.000 
     163      0.000      7.250      0.000      0.000 
     164      0.000      7.250      0.000      0.000 
     165      0.000      0.000      0.000      0.000 
     166      0.000      7.250      0.000      0.000 
     167      0.000      0.000      0.300      0.000 
     168      0.000      0.000      0.300      0.000 
     169      0.000      0.000      0.462      0.000 
     170      0.000      0.000      0.300      0.000 
     171      0.000      0.000      0.300      0.000 
     172      0.000      0.000      0.462      0.000 
     173      1.300     -0.200      0.200      0.000 
     174      0.000      7.250      0.000      0.000 
     175      0.000      0.000      0.000      0.000 
     176      0.000      7.250      0.000      0.000 
     177      0.000      0.000      0.000      0.000 
     178      0.000      7.250      0.000      0.000 
     179      0.000      7.250      0.000      0.000 
     180      0.000      0.000      0.462      0.000 
     181      0.000      7.250      0.000      0.000 
     182      0.000      7.250      0.000      0.000 
     183      0.000      0.000      0.300      0.000 
     184      0.000      0.000      0.462      0.000 
     185      0.000      0.000      0.462      0.000 
     186      0.000      7.250      0.000      0.000 
     187      0.000      7.250      0.000      0.000 
     188      0.000      7.250      0.000      0.000 
     189      0.000      7.250      0.000      0.000 
     190      0.000      7.250      0.000      0.000 
     191      1.300     -0.200      0.200      0.000 
     192      0.000      0.000      0.300      0.000 
     193      0.000      7.250      0.000      0.000 
     194      0.000      7.250      0.000      0.000 
     195      0.000      7.250      0.000      0.000 
     196      0.000      0.000      0.000      0.000 
     197      0.000      0.000      0.462      0.000 
     198      0.000      7.250      0.000      0.000 
     199      0.000      7.250      0.000      0.000 
     200      0.000      0.000      0.000      0.000 
     201      0.000      7.250      0.000      0.000 
     202      0.000      7.250      0.000      0.000 
     203      0.000      7.250      0.000      0.000 
     204      0.000      7.250      0.000      0.000 
     205      0.000      0.000      0.300      0.000 
     206      0.000      7.250      0.000      0.000 
     207      0.000      0.000      0.300      0.000 
     208      0.000      0.000      0.300      0.000 
     209      0.000      7.250      0.000      0.000 
     210      0.000      0.000      0.462      0.000 
     211      0.000      7.250      0.000      0.000 
     212      0.000      0.000      0.300      0.000 
     213      0.000      7.250      0.000      0.000 
     214      0.000      7.250      0.000      0.000 
     215      0.000      0.000      0.300      0.000 
     216      0.000      7.250      0.000      0.000 
     217      0.000      0.000      0.300      0.000 
     218      0.000      0.000      0.300      0.000 
     219      0.000      7.250      0.000      0.000 
     220      1.300     -0.200      0.200      0.000 
     221      0.000      7.250      0.000      0.000 
     222      0.000      0.000      0.300      0.000 
     223      0.000      0.000      0.300      0.000 
     224      0.000      0.000      0.300      0.000 
     225      0.000      0.000      0.462      0.000 
     226      0.000      7.250      0.000      0.000 
     227      0.000      7.250      0.000      0.000 
     228      0.000      7.250      0.000      0.000 
     229      0.000      0.000      0.300      0.000 
     230      0.000      7.250      0.000      0.000 
     231      0.000      0.000      0.300      0.000 

Improper Coeffs 

       1      2.500      -1       2 
       2      2.500      -1       2 
       3      2.500      -1       2 
       4      2.500      -1       2 
       5      2.500      -1       2 
       6      2.500      -1       2 
       7      0.000      -1       2 
       8      0.000      -1       2 
       9      0.000      -1       2 
      10      0.000      -1       2 
      11      0.000      -1       2 
      12      0.000      -1       2 
      13      0.000      -1       2 
      14      0.000      -1       2 
      15      2.500      -1       2 
      16      0.000      -1       2 
      17      0.000      -1       2 
      18      2.500      -1       2 
      19      2.500      -1       2 
      20      2.500      -1       2 
      21      2.500      -1       2 
      22      2.500      -1       2 
      23      2.500      -1       2 
      24      2.500      -1       2 
      25      2.500      -1       2 
      26      2.500      -1       2 
      27      2.500      -1       2 
      28      2.500      -1       2 
      29      0.000      -1       2 
      30      0.000      -1       2 
      31      0.000      -1       2 
      32      0.000      -1       2 
      33      0.000      -1       2 
      34      0.000      -1       2 
      35      2.500      -1       2 
      36      0.000      -1       2 
      37      0.000      -1       2 
      38      0.000      -1       2 
      39      0.000      -1       2 
      40      2.500      -1       2 
      41      2.500      -1       2 
      42      2.500      -1       2 
      43      2.500      -1       2 
      44      2.500      -1       2 
      45      2.500      -1       2 
      46      2.500      -1       2 
      47      2.500      -1       2 
      48      2.500      -1       2 
      49      2.500      -1       2 
      50      2.500      -1       2 

Atoms 

     1      1      1 0.14560000    1.000  1.00000  0.00000
     2      1      2 -0.15320000   -0.082  1.00000  0.00000
     3      1      3 -0.14840000   -0.780  1.00000  1.21031
     4      1      4 -0.14840000   -0.778  0.99847 -1.21057
     5      1      5 0.14710000   -0.236  1.00000  2.14589
     6      1      6 -0.14340000   -2.178  0.99847  1.21354
     7      1      7 0.14710000   -0.234  0.99729 -2.14622
     8      1      8 -0.14340000   -2.177  0.99999 -1.21542
     9      1      9 0.14990000   -2.700  0.99730  2.16202
    10      1     10 -0.07410000   -2.892  0.99692  0.00054
    11      1     11 0.14990000   -2.696  1.00475 -2.16422
    12      1     12 -0.07590000   -4.411  0.99034  0.01635
    13      1     13 -0.16530000   -4.970 -0.31366 -0.61628
    14      1     14 -0.16170000   -4.957  2.24908 -0.70826
    15      1     15 0.11580000   -4.752  1.04325  1.06969
    16      1     16 -0.07530000   -4.564 -1.61320  0.12338
    17      1     17 0.09900000   -4.624 -0.37330 -1.67162
    18      1     18 0.09900000   -6.077 -0.26984 -0.65456
    19      1     19 -0.16710000   -5.288 -1.75211  1.48439
    20      1     20 -0.07460000   -4.844 -2.81070 -0.77126
    21      1     21 0.11490000   -3.473 -1.56607  0.32939
    22      1     22 -0.14150000   -4.824 -2.99122  2.26612
    23      1     23 0.09650000   -6.388 -1.79233  1.32895
    24      1     24 0.09650000   -5.072 -0.86395  2.11337
    25      1     25 -0.14350000   -3.786 -3.63637 -1.19402
    26      1     26 -0.14350000   -6.156 -3.11123 -1.19021
    27      1     27 -0.07890000   -5.502 -3.05911  3.61063
    28      1     28 0.10500000   -3.720 -2.94547  2.39231
    29      1     29 0.10500000   -5.058 -3.91928  1.69983
    30      1     30 -0.14510000   -4.777 -2.80665  4.78808
    31      1     31 -0.14510000   -6.868 -3.37781  3.69713
    32      1     32 0.14870000   -3.724 -2.56057  4.74249
    33      1     33 -0.14640000   -5.413 -2.87002  6.03109
    34      1     34 0.14870000   -7.442 -3.57652  2.79958
    35      1     35 -0.14640000   -7.498 -3.44268  4.94422
    36      1     36 0.14640000   -4.852 -2.67380  6.93600
    37      1     37 -0.15340000   -6.773 -3.18480  6.10725
    38      1     38 0.14640000   -8.549 -3.69209  5.00486
    39      1     39 0.14540000   -7.264 -3.22983  7.07117
    40      1     40 0.15130000   -2.769 -3.42648 -0.88708
    41      1     41 -0.14990000   -4.034 -4.73992 -2.01504
    42      1     42 0.15130000   -6.989 -2.49382 -0.88205
    43      1     43 -0.14990000   -6.399 -4.21443 -2.01393
    44      1     44 0.14650000   -3.215 -5.36948 -2.33396
    45      1     45 -0.15270000   -5.338 -5.02874 -2.42443
    46      1     46 0.14650000   -7.409 -4.43628 -2.33408
    47      1     47 0.14580000   -5.528 -5.88307 -3.06110
    48      1     48 -0.07510000   -6.413  2.59882 -0.29839
    49      1     49 0.09670000   -4.301  3.12182 -0.49618
    50      1     50 0.09670000   -4.891  2.07269 -1.80013
    51      1     51 -0.16260000   -7.084  3.61367 -1.26104
    52      1     52 -0.07780000   -6.465  3.11296  1.13277
    53      1     53 0.11430000   -7.019  1.67419 -0.34495
    54      1     54 -0.07680000   -7.252  3.11855 -2.72274
    55      1     55 0.09580000   -8.089  3.86411 -0.85013
    56      1     56 0.09580000   -6.495  4.55580 -1.27582