LAMMPS data file Created by LigParGen - (Written by Leela S. Dodda)

     162 atoms
     171 bonds
     300 angles
     471 dihedrals
     100 impropers
 
     162 atom types
     171 bond types
     300 angle types
     471 dihedral types
     100 improper types
 
  -12.093520    37.906480 xlo xhi
  -10.207070    39.792930 ylo yhi
   -8.596380    41.403620 zlo zhi

Masses

       1      1.008  
       2     12.011  
       3     12.011  
       4     12.011  
       5      1.008  
       6     12.011  
       7      1.008  
       8     12.011  
       9      1.008  
      10     12.011  
      11      1.008  
      12     12.011  
      13     12.011  
      14     12.011  
      15      1.008  
      16     12.011  
      17      1.008  
      18      1.008  
      19     12.011  
      20     12.011  
      21      1.008  
      22     12.011  
      23      1.008  
      24      1.008  
      25     12.011  
      26     12.011  
      27     12.011  
      28     12.011  
      29      1.008  
      30     12.011  
      31      1.008  
      32      1.008  
      33     12.011  
      34     12.011  
      35     12.011  
      36     12.011  
      37      1.008  
      38      1.008  
      39     12.011  
      40      1.008  
      41     12.011  
      42     12.011  
      43      1.008  
      44      1.008  
      45     12.011  
      46     12.011  
      47     12.011  
      48     12.011  
      49      1.008  
      50      1.008  
      51     12.011  
      52      1.008  
      53     12.011  
      54      1.008  
      55      1.008  
      56      1.008  
      57     12.011  
      58     12.011  
      59      1.008  
      60     12.011  
      61      1.008  
      62      1.008  
      63     12.011  
      64      1.008  
      65     12.011  
      66      1.008  
      67     12.011  
      68      1.008  
      69      1.008  
      70      1.008  
      71      1.008  
      72     12.011  
      73      1.008  
      74      1.008  
      75      1.008  
      76     12.011  
      77      1.008  
      78     12.011  
      79      1.008  
      80     12.011  
      81      1.008  
      82      1.008  
      83     12.011  
      84      1.008  
      85      1.008  
      86     12.011  
      87     12.011  
      88      1.008  
      89     12.011  
      90      1.008  
      91      1.008  
      92     12.011  
      93     12.011  
      94     12.011  
      95     12.011  
      96      1.008  
      97     12.011  
      98      1.008  
      99      1.008  
     100     12.011  
     101     12.011  
     102     12.011  
     103     12.011  
     104      1.008  
     105      1.008  
     106     12.011  
     107      1.008  
     108     12.011  
     109     12.011  
     110      1.008  
     111      1.008  
     112     12.011  
     113     12.011  
     114     12.011  
     115     12.011  
     116      1.008  
     117      1.008  
     118     12.011  
     119      1.008  
     120     12.011  
     121     12.011  
     122      1.008  
     123      1.008  
     124     12.011  
     125     12.011  
     126      1.008  
     127     12.011  
     128      1.008  
     129     12.011  
     130      1.008  
     131      1.008  
     132      1.008  
     133     12.011  
     134      1.008  
     135     12.011  
     136     12.011  
     137     12.011  
     138      1.008  
     139     12.011  
     140      1.008  
     141      1.008  
     142     12.011  
     143      1.008  
     144     12.011  
     145      1.008  
     146      1.008  
     147     12.011  
     148      1.008  
     149      1.008  
     150      1.008  
     151      1.008  
     152     12.011  
     153      1.008  
     154      1.008  
     155      1.008  
     156     12.011  
     157      1.008  
     158     12.011  
     159      1.008  
     160     12.011  
     161      1.008  
     162      1.008  

Pair Coeffs 

       1      0.030  2.4200000 
       2      0.070  3.5500000 
       3      0.070  3.5500000 
       4      0.070  3.5500000 
       5      0.030  2.4200000 
       6      0.070  3.5500000 
       7      0.030  2.4200000 
       8      0.070  3.5500000 
       9      0.030  2.4200000 
      10      0.070  3.5500000 
      11      0.030  2.4200000 
      12      0.066  3.5000000 
      13      0.066  3.5000000 
      14      0.066  3.5000000 
      15      0.030  2.5000000 
      16      0.066  3.5000000 
      17      0.030  2.5000000 
      18      0.030  2.5000000 
      19      0.066  3.5000000 
      20      0.070  3.5500000 
      21      0.030  2.5000000 
      22      0.066  3.5000000 
      23      0.030  2.5000000 
      24      0.030  2.5000000 
      25      0.070  3.5500000 
      26      0.070  3.5500000 
      27      0.066  3.5000000 
      28      0.070  3.5500000 
      29      0.030  2.5000000 
      30      0.066  3.5000000 
      31      0.030  2.5000000 
      32      0.030  2.5000000 
      33      0.070  3.5500000 
      34      0.070  3.5500000 
      35      0.066  3.5000000 
      36      0.070  3.5500000 
      37      0.030  2.5000000 
      38      0.030  2.4200000 
      39      0.070  3.5500000 
      40      0.030  2.4200000 
      41      0.070  3.5500000 
      42      0.066  3.5000000 
      43      0.030  2.5000000 
      44      0.030  2.5000000 
      45      0.070  3.5500000 
      46      0.070  3.5500000 
      47      0.066  3.5000000 
      48      0.070  3.5500000 
      49      0.030  2.5000000 
      50      0.030  2.4200000 
      51      0.070  3.5500000 
      52      0.030  2.4200000 
      53      0.070  3.5500000 
      54      0.030  2.5000000 
      55      0.030  2.5000000 
      56      0.030  2.5000000 
      57      0.070  3.5500000 
      58      0.070  3.5500000 
      59      0.030  2.4200000 
      60      0.070  3.5500000 
      61      0.030  2.4200000 
      62      0.030  2.4200000 
      63      0.070  3.5500000 
      64      0.030  2.4200000 
      65      0.070  3.5500000 
      66      0.030  2.4200000 
      67      0.070  3.5500000 
      68      0.030  2.4200000 
      69      0.030  2.4200000 
      70      0.030  2.4200000 
      71      0.030  2.4200000 
      72      0.070  3.5500000 
      73      0.030  2.4200000 
      74      0.030  2.4200000 
      75      0.030  2.4200000 
      76      0.070  3.5500000 
      77      0.030  2.4200000 
      78      0.070  3.5500000 
      79      0.030  2.4200000 
      80      0.070  3.5500000 
      81      0.030  2.4200000 
      82      0.030  2.4200000 
      83      0.066  3.5000000 
      84      0.030  2.5000000 
      85      0.030  2.5000000 
      86      0.066  3.5000000 
      87      0.070  3.5500000 
      88      0.030  2.5000000 
      89      0.066  3.5000000 
      90      0.030  2.5000000 
      91      0.030  2.5000000 
      92      0.070  3.5500000 
      93      0.070  3.5500000 
      94      0.066  3.5000000 
      95      0.070  3.5500000 
      96      0.030  2.5000000 
      97      0.066  3.5000000 
      98      0.030  2.5000000 
      99      0.030  2.5000000 
     100      0.070  3.5500000 
     101      0.070  3.5500000 
     102      0.066  3.5000000 
     103      0.070  3.5500000 
     104      0.030  2.5000000 
     105      0.030  2.4200000 
     106      0.070  3.5500000 
     107      0.030  2.4200000 
     108      0.070  3.5500000 
     109      0.066  3.5000000 
     110      0.030  2.5000000 
     111      0.030  2.5000000 
     112      0.070  3.5500000 
     113      0.070  3.5500000 
     114      0.066  3.5000000 
     115      0.070  3.5500000 
     116      0.030  2.5000000 
     117      0.030  2.4200000 
     118      0.070  3.5500000 
     119      0.030  2.4200000 
     120      0.070  3.5500000 
     121      0.066  3.5000000 
     122      0.030  2.5000000 
     123      0.030  2.5000000 
     124      0.070  3.5500000 
     125      0.070  3.5500000 
     126      0.030  2.4200000 
     127      0.070  3.5500000 
     128      0.030  2.4200000 
     129      0.070  3.5500000 
     130      0.030  2.5000000 
     131      0.030  2.5000000 
     132      0.030  2.4200000 
     133      0.070  3.5500000 
     134      0.030  2.4200000 
     135      0.070  3.5500000 
     136      0.070  3.5500000 
     137      0.070  3.5500000 
     138      0.030  2.4200000 
     139      0.070  3.5500000 
     140      0.030  2.4200000 
     141      0.030  2.4200000 
     142      0.070  3.5500000 
     143      0.030  2.4200000 
     144      0.070  3.5500000 
     145      0.030  2.4200000 
     146      0.030  2.4200000 
     147      0.070  3.5500000 
     148      0.030  2.4200000 
     149      0.030  2.4200000 
     150      0.030  2.4200000 
     151      0.030  2.4200000 
     152      0.070  3.5500000 
     153      0.030  2.4200000 
     154      0.030  2.4200000 
     155      0.030  2.4200000 
     156      0.070  3.5500000 
     157      0.030  2.4200000 
     158      0.070  3.5500000 
     159      0.030  2.4200000 
     160      0.070  3.5500000 
     161      0.030  2.4200000 
     162      0.030  2.4200000 

Bond Coeffs 

       1   367.0000     1.0800 
       2   469.0000     1.4000 
       3   469.0000     1.4000 
       4   367.0000     1.0800 
       5   469.0000     1.4000 
       6   367.0000     1.0800 
       7   469.0000     1.4000 
       8   367.0000     1.0800 
       9   469.0000     1.4000 
      10   367.0000     1.0800 
      11   317.0000     1.5100 
      12   268.0000     1.5290 
      13   268.0000     1.5290 
      14   340.0000     1.0900 
      15   268.0000     1.5290 
      16   340.0000     1.0900 
      17   340.0000     1.0900 
      18   268.0000     1.5290 
      19   317.0000     1.5100 
      20   340.0000     1.0900 
      21   268.0000     1.5290 
      22   340.0000     1.0900 
      23   340.0000     1.0900 
      24   469.0000     1.4000 
      25   469.0000     1.4000 
      26   268.0000     1.5290 
      27   317.0000     1.5100 
      28   340.0000     1.0900 
      29   268.0000     1.5290 
      30   340.0000     1.0900 
      31   340.0000     1.0900 
      32   469.0000     1.4000 
      33   469.0000     1.4000 
      34   268.0000     1.5290 
      35   317.0000     1.5100 
      36   340.0000     1.0900 
      37   367.0000     1.0800 
      38   469.0000     1.4000 
      39   367.0000     1.0800 
      40   469.0000     1.4000 
      41   268.0000     1.5290 
      42   340.0000     1.0900 
      43   340.0000     1.0900 
      44   469.0000     1.4000 
      45   469.0000     1.4000 
      46   268.0000     1.5290 
      47   317.0000     1.5100 
      48   340.0000     1.0900 
      49   367.0000     1.0800 
      50   469.0000     1.4000 
      51   367.0000     1.0800 
      52   469.0000     1.4000 
      53   340.0000     1.0900 
      54   340.0000     1.0900 
      55   340.0000     1.0900 
      56   469.0000     1.4000 
      57   469.0000     1.4000 
      58   367.0000     1.0800 
      59   469.0000     1.4000 
      60   367.0000     1.0800 
      61   367.0000     1.0800 
      62   469.0000     1.4000 
      63   367.0000     1.0800 
      64   469.0000     1.4000 
      65   367.0000     1.0800 
      66   469.0000     1.4000 
      67   367.0000     1.0800 
      68   367.0000     1.0800 
      69   367.0000     1.0800 
      70   367.0000     1.0800 
      71   469.0000     1.4000 
      72   367.0000     1.0800 
      73   367.0000     1.0800 
      74   367.0000     1.0800 
      75   469.0000     1.4000 
      76   367.0000     1.0800 
      77   469.0000     1.4000 
      78   367.0000     1.0800 
      79   469.0000     1.4000 
      80   367.0000     1.0800 
      81   367.0000     1.0800 
      82   268.0000     1.5290 
      83   340.0000     1.0900 
      84   340.0000     1.0900 
      85   268.0000     1.5290 
      86   317.0000     1.5100 
      87   340.0000     1.0900 
      88   268.0000     1.5290 
      89   340.0000     1.0900 
      90   340.0000     1.0900 
      91   469.0000     1.4000 
      92   469.0000     1.4000 
      93   268.0000     1.5290 
      94   317.0000     1.5100 
      95   340.0000     1.0900 
      96   268.0000     1.5290 
      97   340.0000     1.0900 
      98   340.0000     1.0900 
      99   469.0000     1.4000 
     100   469.0000     1.4000 
     101   268.0000     1.5290 
     102   317.0000     1.5100 
     103   340.0000     1.0900 
     104   367.0000     1.0800 
     105   469.0000     1.4000 
     106   367.0000     1.0800 
     107   469.0000     1.4000 
     108   268.0000     1.5290 
     109   340.0000     1.0900 
     110   340.0000     1.0900 
     111   469.0000     1.4000 
     112   469.0000     1.4000 
     113   268.0000     1.5290 
     114   317.0000     1.5100 
     115   340.0000     1.0900 
     116   367.0000     1.0800 
     117   469.0000     1.4000 
     118   367.0000     1.0800 
     119   469.0000     1.4000 
     120   268.0000     1.5290 
     121   340.0000     1.0900 
     122   340.0000     1.0900 
     123   469.0000     1.4000 
     124   469.0000     1.4000 
     125   367.0000     1.0800 
     126   469.0000     1.4000 
     127   367.0000     1.0800 
     128   317.0000     1.5100 
     129   340.0000     1.0900 
     130   340.0000     1.0900 
     131   367.0000     1.0800 
     132   469.0000     1.4000 
     133   367.0000     1.0800 
     134   469.0000     1.4000 
     135   469.0000     1.4000 
     136   469.0000     1.4000 
     137   367.0000     1.0800 
     138   469.0000     1.4000 
     139   367.0000     1.0800 
     140   367.0000     1.0800 
     141   469.0000     1.4000 
     142   367.0000     1.0800 
     143   469.0000     1.4000 
     144   367.0000     1.0800 
     145   367.0000     1.0800 
     146   469.0000     1.4000 
     147   367.0000     1.0800 
     148   367.0000     1.0800 
     149   367.0000     1.0800 
     150   367.0000     1.0800 
     151   469.0000     1.4000 
     152   367.0000     1.0800 
     153   367.0000     1.0800 
     154   367.0000     1.0800 
     155   469.0000     1.4000 
     156   367.0000     1.0800 
     157   469.0000     1.4000 
     158   367.0000     1.0800 
     159   469.0000     1.4000 
     160   367.0000     1.0800 
     161   367.0000     1.0800 
     162   469.0000     1.4000 
     163   469.0000     1.4000 
     164   469.0000     1.4000 
     165   469.0000     1.4000 
     166   469.0000     1.4000 
     167   469.0000     1.4000 
     168   469.0000     1.4000 
     169   469.0000     1.4000 
     170   469.0000     1.4000 
     171   469.0000     1.4000 

Angle Coeffs 

       1     35.000    120.000
       2     35.000    120.000
       3     35.000    120.000
       4     63.000    120.000
       5     35.000    120.000
       6     63.000    120.000
       7     35.000    120.000
       8     63.000    120.000
       9     35.000    120.000
      10     70.000    120.000
      11     63.000    114.000
      12     63.000    114.000
      13     35.000    109.500
      14     58.350    112.700
      15     37.500    110.700
      16     37.500    110.700
      17     58.350    112.700
      18     63.000    114.000
      19     37.500    110.700
      20     58.350    112.700
      21     37.500    110.700
      22     37.500    110.700
      23     70.000    120.000
      24     70.000    120.000
      25     58.350    112.700
      26     63.000    114.000
      27     37.500    110.700
      28     58.350    112.700
      29     37.500    110.700
      30     37.500    110.700
      31     70.000    120.000
      32     70.000    120.000
      33     58.350    112.700
      34     63.000    114.000
      35     37.500    110.700
      36     35.000    120.000
      37     63.000    120.000
      38     35.000    120.000
      39     63.000    120.000
      40     58.350    112.700
      41     37.500    110.700
      42     37.500    110.700
      43     70.000    120.000
      44     70.000    120.000
      45     58.350    112.700
      46     63.000    114.000
      47     37.500    110.700
      48     35.000    120.000
      49     63.000    120.000
      50     35.000    120.000
      51     63.000    120.000
      52     37.500    110.700
      53     37.500    110.700
      54     37.500    110.700
      55     70.000    120.000
      56     70.000    120.000
      57     35.000    120.000
      58     63.000    120.000
      59     35.000    120.000
      60     35.000    120.000
      61     63.000    120.000
      62     35.000    120.000
      63     63.000    120.000
      64     35.000    120.000
      65     63.000    120.000
      66     35.000    120.000
      67     35.000    120.000
      68     35.000    120.000
      69     35.000    120.000
      70     63.000    120.000
      71     35.000    120.000
      72     35.000    120.000
      73     35.000    120.000
      74     63.000    120.000
      75     35.000    120.000
      76     63.000    120.000
      77     35.000    120.000
      78     63.000    120.000
      79     35.000    120.000
      80     35.000    120.000
      81     58.350    112.700
      82     37.500    110.700
      83     37.500    110.700
      84     58.350    112.700
      85     63.000    114.000
      86     37.500    110.700
      87     58.350    112.700
      88     37.500    110.700
      89     37.500    110.700
      90     70.000    120.000
      91     70.000    120.000
      92     58.350    112.700
      93     63.000    114.000
      94     37.500    110.700
      95     58.350    112.700
      96     37.500    110.700
      97     37.500    110.700
      98     70.000    120.000
      99     70.000    120.000
     100     58.350    112.700
     101     63.000    114.000
     102     37.500    110.700
     103     35.000    120.000
     104     63.000    120.000
     105     35.000    120.000
     106     63.000    120.000
     107     58.350    112.700
     108     37.500    110.700
     109     37.500    110.700
     110     70.000    120.000
     111     70.000    120.000
     112     58.350    112.700
     113     63.000    114.000
     114     37.500    110.700
     115     35.000    120.000
     116     63.000    120.000
     117     35.000    120.000
     118     63.000    120.000
     119     58.350    112.700
     120     37.500    110.700
     121     37.500    110.700
     122     70.000    120.000
     123     70.000    120.000
     124     35.000    120.000
     125     63.000    120.000
     126     35.000    120.000
     127     63.000    114.000
     128     37.500    110.700
     129     37.500    110.700
     130     35.000    120.000
     131     63.000    120.000
     132     35.000    120.000
     133     63.000    120.000
     134     70.000    120.000
     135     70.000    120.000
     136     35.000    120.000
     137     63.000    120.000
     138     35.000    120.000
     139     35.000    120.000
     140     63.000    120.000
     141     35.000    120.000
     142     63.000    120.000
     143     35.000    120.000
     144     35.000    120.000
     145     63.000    120.000
     146     35.000    120.000
     147     35.000    120.000
     148     35.000    120.000
     149     35.000    120.000
     150     63.000    120.000
     151     35.000    120.000
     152     35.000    120.000
     153     35.000    120.000
     154     63.000    120.000
     155     35.000    120.000
     156     63.000    120.000
     157     35.000    120.000
     158     63.000    120.000
     159     35.000    120.000
     160     35.000    120.000
     161     35.000    120.000
     162     37.500    110.700
     163     63.000    120.000
     164     35.000    120.000
     165     37.500    110.700
     166     58.350    112.700
     167     33.000    107.800
     168     35.000    109.500
     169     33.000    107.800
     170     35.000    120.000
     171     63.000    114.000
     172     35.000    109.500
     173     35.000    120.000
     174     37.500    110.700
     175     63.000    120.000
     176     63.000    114.000
     177     63.000    114.000
     178     63.000    120.000
     179     63.000    120.000
     180     63.000    120.000
     181     37.500    110.700
     182     35.000    120.000
     183     35.000    120.000
     184     63.000    120.000
     185     35.000    120.000
     186     63.000    120.000
     187     37.500    110.700
     188     63.000    120.000
     189     35.000    109.500
     190     33.000    107.800
     191     63.000    120.000
     192     70.000    120.000
     193     37.500    110.700
     194     63.000    120.000
     195     35.000    120.000
     196     63.000    120.000
     197     35.000    109.500
     198     35.000    120.000
     199     37.500    110.700
     200     35.000    120.000
     201     35.000    120.000
     202     35.000    120.000
     203     63.000    120.000
     204     35.000    120.000
     205     35.000    120.000
     206     37.500    110.700
     207     35.000    109.500
     208     63.000    114.000
     209     35.000    120.000
     210     37.500    110.700
     211     35.000    120.000
     212     37.500    110.700
     213     37.500    110.700
     214     35.000    120.000
     215     35.000    120.000
     216     35.000    120.000
     217     63.000    120.000
     218     35.000    120.000
     219     63.000    120.000
     220     35.000    120.000
     221     35.000    120.000
     222     63.000    120.000
     223     35.000    120.000
     224     35.000    120.000
     225     33.000    107.800
     226     63.000    120.000
     227     37.500    110.700
     228     37.500    110.700
     229     63.000    120.000
     230     63.000    120.000
     231     35.000    120.000
     232     37.500    110.700
     233     33.000    107.800
     234     37.500    110.700
     235     33.000    107.800
     236     37.500    110.700
     237     35.000    109.500
     238     35.000    109.500
     239     35.000    120.000
     240     63.000    120.000
     241     33.000    107.800
     242     37.500    110.700
     243     35.000    120.000
     244     35.000    120.000
     245     35.000    120.000
     246     33.000    107.800
     247     37.500    110.700
     248     37.500    110.700
     249     35.000    109.500
     250     63.000    120.000
     251     63.000    120.000
     252     35.000    120.000
     253     63.000    120.000
     254     37.500    110.700
     255     35.000    120.000
     256     63.000    114.000
     257     63.000    120.000
     258     35.000    120.000
     259     33.000    107.800
     260     33.000    107.800
     261     63.000    120.000
     262     35.000    120.000
     263     35.000    120.000
     264     35.000    120.000
     265     37.500    110.700
     266     63.000    114.000
     267     33.000    107.800
     268     33.000    107.800
     269     35.000    120.000
     270     35.000    120.000
     271     35.000    120.000
     272     35.000    120.000
     273     63.000    120.000
     274     37.500    110.700
     275     37.500    110.700
     276     35.000    120.000
     277     33.000    107.800
     278     63.000    120.000
     279     35.000    120.000
     280     35.000    120.000
     281     63.000    114.000
     282     63.000    114.000
     283     63.000    120.000
     284     35.000    120.000
     285     37.500    110.700
     286     35.000    120.000
     287     35.000    109.500
     288     63.000    120.000
     289     37.500    110.700
     290     37.500    110.700
     291     35.000    120.000
     292     37.500    110.700
     293     35.000    120.000
     294     37.500    110.700
     295     35.000    109.500
     296     35.000    120.000
     297     35.000    120.000
     298     35.000    120.000
     299     63.000    120.000
     300     63.000    120.000

Dihedral Coeffs  

       1      0.000      7.250      0.000      0.000 
       2      0.000      7.250      0.000      0.000 
       3      0.000      7.250      0.000      0.000 
       4      0.000      0.000      0.000      0.000 
       5      1.300     -0.200      0.200      0.000 
       6      1.300     -0.200      0.200      0.000 
       7      1.300     -0.200      0.200      0.000 
       8      0.000      0.000      0.000      0.000 
       9      1.300     -0.200      0.200      0.000 
      10      1.300     -0.200      0.200      0.000 
      11      0.000      0.000      0.000      0.000 
      12      1.300     -0.200      0.200      0.000 
      13      0.000      7.250      0.000      0.000 
      14      0.000      7.250      0.000      0.000 
      15      1.300     -0.200      0.200      0.000 
      16      0.000      0.000      0.000      0.000 
      17      1.300     -0.200      0.200      0.000 
      18      0.000      7.250      0.000      0.000 
      19      0.000      7.250      0.000      0.000 
      20      0.000      0.000      0.300      0.000 
      21      0.000      0.000      0.000      0.000 
      22      0.000      7.250      0.000      0.000 
      23      0.000      7.250      0.000      0.000 
      24      0.000      7.250      0.000      0.000 
      25      0.000      7.250      0.000      0.000 
      26      0.000      7.250      0.000      0.000 
      27      0.000      7.250      0.000      0.000 
      28      0.000      7.250      0.000      0.000 
      29      0.000      7.250      0.000      0.000 
      30      1.300     -0.200      0.200      0.000 
      31      1.300     -0.200      0.200      0.000 
      32      1.300     -0.200      0.200      0.000 
      33      0.000      0.000      0.000      0.000 
      34      1.300     -0.200      0.200      0.000 
      35      1.300     -0.200      0.200      0.000 
      36      0.000      0.000      0.000      0.000 
      37      1.300     -0.200      0.200      0.000 
      38      0.000      7.250      0.000      0.000 
      39      0.000      7.250      0.000      0.000 
      40      1.300     -0.200      0.200      0.000 
      41      0.000      0.000      0.000      0.000 
      42      1.300     -0.200      0.200      0.000 
      43      0.000      7.250      0.000      0.000 
      44      0.000      7.250      0.000      0.000 
      45      1.300     -0.200      0.200      0.000 
      46      0.000      0.000      0.000      0.000 
      47      0.000      7.250      0.000      0.000 
      48      1.300     -0.200      0.200      0.000 
      49      0.000      7.250      0.000      0.000 
      50      0.000      7.250      0.000      0.000 
      51      0.000      0.000      0.000      0.000 
      52      0.000      7.250      0.000      0.000 
      53      0.000      7.250      0.000      0.000 
      54      0.000      7.250      0.000      0.000 
      55      0.000      7.250      0.000      0.000 
      56      0.000      7.250      0.000      0.000 
      57      0.000      7.250      0.000      0.000 
      58      0.000      7.250      0.000      0.000 
      59      0.000      7.250      0.000      0.000 
      60      0.000      7.250      0.000      0.000 
      61      0.000      7.250      0.000      0.000 
      62      0.000      7.250      0.000      0.000 
      63      0.000      7.250      0.000      0.000 
      64      0.000      7.250      0.000      0.000 
      65      0.000      7.250      0.000      0.000 
      66      0.000      7.250      0.000      0.000 
      67      0.000      7.250      0.000      0.000 
      68      1.300     -0.200      0.200      0.000 
      69      0.000      7.250      0.000      0.000 
      70      0.000      0.000      0.000      0.000 
      71      0.000      7.250      0.000      0.000 
      72      0.000      7.250      0.000      0.000 
      73      0.000      7.250      0.000      0.000 
      74      0.000      7.250      0.000      0.000 
      75      0.000      7.250      0.000      0.000 
      76      0.000      0.000      0.300      0.000 
      77      0.000      0.000      0.300      0.000 
      78      0.000      0.000      0.462      0.000 
      79      0.000      0.000      0.462      0.000 
      80      0.000      0.000      0.300      0.000 
      81      1.300     -0.200      0.200      0.000 
      82      0.000      7.250      0.000      0.000 
      83      0.000      7.250      0.000      0.000 
      84      0.000      0.000      0.462      0.000 
      85      0.000      0.000      0.300      0.000 
      86      0.000      0.000      0.462      0.000 
      87      0.000      0.000      0.300      0.000 
      88      0.000      0.000      0.000      0.000 
      89      0.000      7.250      0.000      0.000 
      90      0.000      7.250      0.000      0.000 
      91      0.000      7.250      0.000      0.000 
      92      0.000      0.000      0.000      0.000 
      93      0.000      7.250      0.000      0.000 
      94      0.000      7.250      0.000      0.000 
      95      0.000      7.250      0.000      0.000 
      96      0.000      7.250      0.000      0.000 
      97      0.000      7.250      0.000      0.000 
      98      0.000      7.250      0.000      0.000 
      99      0.000      7.250      0.000      0.000 
     100      0.000      7.250      0.000      0.000 
     101      0.000      0.000      0.000      0.000 
     102      0.000      7.250      0.000      0.000 
     103      0.000      7.250      0.000      0.000 
     104      0.000      7.250      0.000      0.000 
     105      0.000      7.250      0.000      0.000 
     106      0.000      7.250      0.000      0.000 
     107      0.000      0.000      0.000      0.000 
     108      0.000      0.000      0.300      0.000 
     109      0.000      0.000      0.300      0.000 
     110      0.000      0.000      0.300      0.000 
     111      0.000      7.250      0.000      0.000 