LAMMPS data file Created by LigParGen - (Written by Leela S. Dodda)

      80 atoms
      83 bonds
     145 angles
     209 dihedrals
      47 impropers
 
      80 atom types
      83 bond types
     145 angle types
     209 dihedral types
      47 improper types
 
  -15.129510    34.870490 xlo xhi
   -4.526190    45.473810 ylo yhi
   -1.997390    48.002610 zlo zhi

Masses

       1     12.011  
       2     15.999  
       3     12.011  
       4     12.011  
       5     12.011  
       6     12.011  
       7     15.999  
       8     12.011  
       9     12.011  
      10     12.011  
      11     12.011  
      12     12.011  
      13     14.007  
      14     14.007  
      15     14.007  
      16     15.999  
      17     12.011  
      18     12.011  
      19     12.011  
      20     12.011  
      21     12.011  
      22     12.011  
      23     12.011  
      24     12.011  
      25      1.008  
      26      1.008  
      27      1.008  
      28      1.008  
      29      1.008  
      30      1.008  
      31      1.008  
      32      1.008  
      33      1.008  
      34      1.008  
      35      1.008  
      36      1.008  
      37      1.008  
      38      1.008  
      39      1.008  
      40      1.008  
      41      1.008  
      42      1.008  
      43      1.008  
      44     15.999  
      45     12.011  
      46     12.011  
      47     12.011  
      48     12.011  
      49     12.011  
      50     12.011  
      51     12.011  
      52      1.008  
      53      1.008  
      54      1.008  
      55      1.008  
      56      1.008  
      57      1.008  
      58      1.008  
      59     12.011  
      60     12.011  
      61      1.008  
      62      1.008  
      63      1.008  
      64      1.008  
      65     12.011  
      66     12.011  
      67     12.011  
      68     12.011  
      69     12.011  
      70     12.011  
      71      1.008  
      72      1.008  
      73      1.008  
      74      1.008  
      75      1.008  
      76      1.008  
      77     12.011  
      78      1.008  
      79      1.008  
      80      1.008  

Pair Coeffs 

       1      0.066  3.5000000 
       2      0.140  2.9000000 
       3      0.070  3.5500000 
       4      0.066  3.5000000 
       5      0.066  3.5000000 
       6      0.070  3.5500000 
       7      0.140  2.9000000 
       8      0.066  3.5000000 
       9      0.066  3.5000000 
      10      0.066  3.5000000 
      11      0.070  3.5500000 
      12      0.070  3.5500000 
      13      0.170  3.2500000 
      14      0.170  3.2500000 
      15      0.170  3.2500000 
      16      0.210  2.9600000 
      17      0.066  3.5000000 
      18      0.066  3.5000000 
      19      0.070  3.5500000 
      20      0.070  3.5500000 
      21      0.070  3.5500000 
      22      0.070  3.5500000 
      23      0.070  3.5500000 
      24      0.070  3.5500000 
      25      0.030  2.5000000 
      26      0.030  2.5000000 
      27      0.030  2.5000000 
      28      0.030  2.5000000 
      29      0.030  2.5000000 
      30      0.030  2.5000000 
      31      0.030  2.5000000 
      32      0.030  2.5000000 
      33      0.030  2.5000000 
      34      0.030  2.5000000 
      35      0.030  2.5000000 
      36      0.030  2.4200000 
      37      0.030  2.5000000 
      38      0.030  2.5000000 
      39      0.030  2.4200000 
      40      0.030  2.4200000 
      41      0.030  2.4200000 
      42      0.030  2.4200000 
      43      0.030  2.4200000 
      44      0.210  2.9600000 
      45      0.066  3.5000000 
      46      0.070  3.5500000 
      47      0.070  3.5500000 
      48      0.070  3.5500000 
      49      0.070  3.5500000 
      50      0.070  3.5500000 
      51      0.070  3.5500000 
      52      0.030  2.5000000 
      53      0.030  2.4200000 
      54      0.030  2.4200000 
      55      0.030  2.4200000 
      56      0.030  2.4200000 
      57      0.030  2.4200000 
      58      0.030  2.5000000 
      59      0.066  3.5000000 
      60      0.066  3.5000000 
      61      0.030  2.5000000 
      62      0.030  2.5000000 
      63      0.030  2.5000000 
      64      0.030  2.5000000 
      65      0.070  3.5500000 
      66      0.070  3.5500000 
      67      0.070  3.5500000 
      68      0.070  3.5500000 
      69      0.070  3.5500000 
      70      0.070  3.5500000 
      71      0.030  2.5000000 
      72      0.030  2.4200000 
      73      0.030  2.4200000 
      74      0.030  2.4200000 
      75      0.030  2.4200000 
      76      0.030  2.4200000 
      77      0.066  3.5000000 
      78      0.030  2.5000000 
      79      0.030  2.5000000 
      80      0.030  2.5000000 

Bond Coeffs 

       1   320.0000     1.4100 
       2   214.0000     1.3270 
       3   317.0000     1.5220 
       4   268.0000     1.5290 
       5   317.0000     1.5220 
       6   214.0000     1.3270 
       7   320.0000     1.4100 
       8   268.0000     1.5290 
       9   268.0000     1.5290 
      10   317.0000     1.5040 
      11   520.0000     1.3700 
      12   427.0000     1.3810 
      13   400.0000     1.3490 
      14   410.0000     1.3940 
      15   570.0000     1.2290 
      16   337.0000     1.4750 
      17   268.0000     1.5290 
      18   317.0000     1.5100 
      19   469.0000     1.4000 
      20   469.0000     1.4000 
      21   469.0000     1.4000 
      22   469.0000     1.4000 
      23   469.0000     1.4000 
      24   340.0000     1.0900 
      25   340.0000     1.0900 
      26   340.0000     1.0900 
      27   340.0000     1.0900 
      28   340.0000     1.0900 
      29   340.0000     1.0900 
      30   340.0000     1.0900 
      31   340.0000     1.0900 
      32   340.0000     1.0900 
      33   340.0000     1.0900 
      34   340.0000     1.0900 
      35   367.0000     1.0800 
      36   340.0000     1.0900 
      37   340.0000     1.0900 
      38   367.0000     1.0800 
      39   367.0000     1.0800 
      40   367.0000     1.0800 
      41   367.0000     1.0800 
      42   367.0000     1.0800 
      43   570.0000     1.2290 
      44   268.0000     1.5290 
      45   317.0000     1.5100 
      46   469.0000     1.4000 
      47   469.0000     1.4000 
      48   469.0000     1.4000 
      49   469.0000     1.4000 
      50   469.0000     1.4000 
      51   340.0000     1.0900 
      52   367.0000     1.0800 
      53   367.0000     1.0800 
      54   367.0000     1.0800 
      55   367.0000     1.0800 
      56   367.0000     1.0800 
      57   340.0000     1.0900 
      58   268.0000     1.5290 
      59   268.0000     1.5290 
      60   340.0000     1.0900 
      61   340.0000     1.0900 
      62   340.0000     1.0900 
      63   340.0000     1.0900 
      64   317.0000     1.5100 
      65   469.0000     1.4000 
      66   469.0000     1.4000 
      67   469.0000     1.4000 
      68   469.0000     1.4000 
      69   469.0000     1.4000 
      70   340.0000     1.0900 
      71   367.0000     1.0800 
      72   367.0000     1.0800 
      73   367.0000     1.0800 
      74   367.0000     1.0800 
      75   367.0000     1.0800 
      76   268.0000     1.5290 
      77   340.0000     1.0900 
      78   340.0000     1.0900 
      79   340.0000     1.0900 
      80   400.0000     1.2800 
      81   469.0000     1.4000 
      82   469.0000     1.4000 
      83   469.0000     1.4000 

Angle Coeffs 

       1     83.000    116.900
       2     81.000    111.400
       3     63.000    111.100
       4     63.000    111.100
       5     81.000    111.400
       6     83.000    116.900
       7     50.000    109.500
       8     58.350    112.700
       9     63.000    114.000
      10     70.000    130.700
      11     70.000    106.300
      12     56.000    113.100
      13     70.000    124.500
      14     83.000    123.400
      15     63.000    112.400
      16     51.650    110.580
      17     80.000    111.200
      18     70.000    120.000
      19     63.000    120.000
      20     63.000    120.000
      21     63.000    120.000
      22     70.000    120.000
      23     35.000    109.500
      24     35.000    109.500
      25     35.000    109.500
      26     37.500    110.700
      27     37.500    110.700
      28     35.000    109.500
      29     35.000    109.500
      30     37.500    110.700
      31     37.500    110.700
      32     37.500    110.700
      33     37.500    110.700
      34     35.000    130.700
      35     35.000    109.500
      36     37.500    110.700
      37     35.000    120.000
      38     35.000    120.000
      39     35.000    120.000
      40     35.000    120.000
      41     35.000    120.000
      42     80.000    120.400
      43     58.350    112.700
      44     63.000    114.000
      45     70.000    120.000
      46     63.000    120.000
      47     63.000    120.000
      48     63.000    120.000
      49     70.000    120.000
      50     37.500    110.700
      51     35.000    120.000
      52     35.000    120.000
      53     35.000    120.000
      54     35.000    120.000
      55     35.000    120.000
      56     35.000    109.500
      57     58.350    112.700
      58     58.350    112.700
      59     37.500    110.700
      60     37.500    110.700
      61     37.500    110.700
      62     37.500    110.700
      63     63.000    114.000
      64     70.000    120.000
      65     63.000    120.000
      66     63.000    120.000
      67     63.000    120.000
      68     70.000    120.000
      69     37.500    110.700
      70     35.000    120.000
      71     35.000    120.000
      72     35.000    120.000
      73     35.000    120.000
      74     35.000    120.000
      75     50.000    109.500
      76     37.500    110.700
      77     37.500    110.700
      78     37.500    110.700
      79     37.500    110.700
      80     63.000    120.000
      81     70.000    111.000
      82     59.410    111.360
      83     37.500    110.700
      84     35.000    121.600
      85     37.500    110.700
      86     63.000    120.000
      87     35.000    120.000
      88     33.000    107.800
      89     37.500    110.700
      90     33.000    107.800
      91     33.000    107.800
      92     37.500    110.700
      93     33.000    107.800
      94     33.000    107.800
      95     63.000    120.000
      96     37.500    110.700
      97     35.000    120.000
      98     63.000    120.000
      99     35.000    120.000
     100     35.000    109.500
     101     63.000    120.000
     102     63.000    120.000
     103     35.000    109.500
     104     35.000    109.500
     105     33.000    107.800
     106     35.000    120.000
     107     37.500    110.700
     108     35.000    109.500
     109     33.000    107.800
     110     33.000    107.800
     111     35.000    109.500
     112     35.000    109.500
     113     37.500    110.700
     114     63.000    120.000
     115     63.000    120.000
     116     37.500    110.700
     117     33.000    107.800
     118     37.500    110.700
     119     33.000    107.800
     120     37.500    110.700
     121     63.000    120.000
     122     33.000    107.800
     123     35.000    120.000
     124     35.000    120.000
     125     35.000    120.000
     126     35.000    120.000
     127     37.500    110.700
     128     70.000    118.400
     129     35.000    120.000
     130     83.000    123.400
     131     35.000    109.500
     132     63.000    114.000
     133     35.000    120.000
     134     33.000    107.800
     135     35.000    120.000
     136     37.500    110.700
     137     63.000    114.000
     138     35.000    120.000
     139     37.500    110.700
     140     35.000    120.000
     141     70.000    117.000
     142     80.000    120.400
     143     35.000    120.000
     144     35.000    109.500
     145     35.000    120.000

Dihedral Coeffs  

       1      4.669      5.124      0.000      0.000 
       2      0.000      0.000     -0.553      0.000 
       3     -0.550      0.000      1.000      0.000 
       4      0.000      0.000     -0.553      0.000 
       5      4.669      5.124      0.000      0.000 
       6     -1.220     -0.126      0.422      0.000 
       7      1.711     -0.500      0.663      0.000 
       8      1.300     -0.200      0.200      0.000 
       9      0.000      0.000      0.000      0.000 
      10      0.000      7.250      0.000      0.000 
      11      0.000      5.000      0.000      0.000 
      12      1.000     -0.350      0.000      0.000 
      13      0.000      0.000      0.000      0.000 
      14      0.000      7.250      0.000      0.000 
      15      0.000      7.250      0.000      0.000 
      16      0.000      7.250      0.000      0.000 
      17      0.000      0.000      0.198      0.000 
      18     -1.013     -0.709      0.473      0.000 
      19      1.300     -0.200      0.200      0.000 
      20      0.000      0.000      0.000      0.000 
      21      0.000      7.250      0.000      0.000 
      22      0.000      7.250      0.000      0.000 
      23      0.000      7.250      0.000      0.000 
      24      1.300     -0.200      0.200      0.000 
      25      0.000      0.000      0.300      0.000 
      26      0.000      0.000      0.000      0.000 
      27      0.000      7.250      0.000      0.000 
      28      0.000      7.250      0.000      0.000 
      29      0.000      7.250      0.000      0.000 
      30      0.000      0.000      0.468      0.000 
      31      0.000      0.000      0.000      0.000 
      32      0.000      0.000      0.300      0.000 
      33      0.000      0.000      0.300      0.000 
      34      0.000      0.000      0.300      0.000 
      35      0.000      7.250      0.000      0.000 
      36      0.000      7.250      0.000      0.000 
      37      0.000      7.250      0.000      0.000 
      38      0.000      7.250      0.000      0.000 
      39      0.000      7.250      0.000      0.000 
      40      0.000      0.000      0.198      0.000 
      41      1.300     -0.200      0.200      0.000 
      42      0.000      0.000      0.462      0.000 
      43      0.000      7.250      0.000      0.000 
      44      0.000      0.000      0.000      0.000 
      45      0.000      0.000      0.000      0.000 
      46      0.000      0.000      0.300      0.000 
      47      0.000      7.250      0.000      0.000 
      48      0.000      7.250      0.000      0.000 
      49      0.000      0.000      0.000      0.000 
      50      0.000      5.124      0.000      0.000 
      51      0.000      0.000      0.300      0.000 
      52      2.392     -0.674      0.550      0.000 
      53      0.000      7.250      0.000      0.000 
      54      0.000      0.000      0.198      0.000 
      55      0.000      7.250      0.000      0.000 
      56      0.000      0.000      0.462      0.000 
      57      0.000      0.000      0.468      0.000 
      58      0.000      0.000      0.300      0.000 
      59      0.000      0.000      0.300      0.000 
      60     -1.220     -0.126      0.422      0.000 
      61      0.000      0.000      0.300      0.000 
      62      0.000      7.250      0.000      0.000 
      63      0.000      0.000      0.300      0.000 
      64      0.000      0.000      0.462      0.000 
      65      0.000      7.250      0.000      0.000 
      66      0.000      0.000      0.000      0.000 
      67      0.000      7.250      0.000      0.000 
      68      0.000      0.000      0.000      0.000 
      69      0.000      7.250      0.000      0.000 
      70      0.000      7.250      0.000      0.000 
      71      0.000      7.250      0.000      0.000 
      72      0.000      7.250      0.000      0.000 
      73      0.000      0.000      0.000      0.000 
      74      0.000      0.000      0.000      0.000 
      75      0.000      0.000      0.000      0.000 
      76      0.000      7.250      0.000      0.000 
      77      0.000      7.250      0.000      0.000 
      78      0.000      0.000      0.198      0.000 
      79      0.000      7.250      0.000      0.000 
      80      0.000      7.250      0.000      0.000 
      81      0.000      0.000      0.300      0.000 
      82      0.000      0.000      0.132      0.000 
      83      0.000      0.000      0.300      0.000 
      84      0.000      0.000      0.132      0.000 
      85      0.000      0.000      0.300      0.000 
      86      0.000      0.000      0.000      0.000 
      87      0.000      0.000      0.000      0.000 
      88      0.000      7.250      0.000      0.000 
      89      0.000      7.250      0.000      0.000 
      90      0.000      7.250      0.000      0.000 
      91      0.000      7.250      0.000      0.000 
      92      0.000      0.000      0.300      0.000 
      93      0.000      7.250      0.000      0.000 
      94      0.000      0.000      0.300      0.000 
      95      0.000      0.000      0.300      0.000 
      96      0.000      0.000      0.300      0.000 
      97      0.000      7.250      0.000      0.000 
      98      0.000      7.250      0.000      0.000 
      99      0.000      0.000      0.300      0.000 
     100      0.000      7.250      0.000      0.000 
     101      0.000      0.000      0.000      0.000 
     102      0.000      7.250      0.000      0.000 
     103      0.000      0.000      0.000      0.000 
     104      0.000      0.000     -0.100      0.000 
     105      0.000      7.250      0.000      0.000 
     106      0.000      7.250      0.000      0.000 
     107      0.000      7.250      0.000      0.000 
     108      0.000      0.000      0.300      0.000 
     109     -1.013     -0.709      0.473      0.000 
     110      0.000      7.250      0.000      0.000 
     111      0.000      7.250      0.000      0.000 
     112      0.000      0.000      0.000      0.000 
     113      0.000      7.250      0.000      0.000 
     114      0.000      7.250      0.000      0.000 
     115      0.000      7.250      0.000      0.000 
     116      0.000      0.000      0.300      0.000 
     117      0.000      7.250      0.000      0.000 
     118      0.000      7.250      0.000      0.000 
     119      0.000      7.250      0.000      0.000 
     120      0.000      5.000      0.000      0.000 
     121      0.000      0.000      0.462      0.000 
     122      0.000      0.000      0.000      0.000 
     123      0.000      0.000      0.300      0.000 
     124      0.000      0.000      0.300      0.000 
     125      0.000      7.250      0.000      0.000 
     126      0.000      0.000      0.300      0.000 
     127      0.000      7.250      0.000      0.000 
     128      0.000      0.000      0.462      0.000 
     129      0.000      0.000      0.300      0.000 
     130      0.000      0.000      0.000      0.000 
     131      0.000      7.250      0.000      0.000 
     132      0.000      0.000      0.462      0.000 
     133      1.300     -0.200      0.200      0.000 
     134      0.000      0.000      0.000      0.000 
     135      0.000      7.250      0.000      0.000 
     136      0.000      0.000      0.000      0.000 
     137      0.000      7.250      0.000      0.000 
     138      0.000      7.250      0.000      0.000 
     139      0.000      0.000      0.300      0.000 
     140      0.000      0.000      0.132      0.000 
     141      0.000      0.000      0.000      0.000 
     142      0.000      0.000      0.300      0.000 
     143      0.000      0.000      0.132      0.000 
     144      0.000      0.000      0.462      0.000 
     145      0.000      7.250      0.000      0.000 
     146      0.000      0.000      0.300      0.000 
     147      0.000      7.250      0.000      0.000 
     148      0.000      0.000      0.300      0.000 
     149      0.000      7.250      0.000      0.000 
     150      0.000      0.000      0.468      0.000 
     151      0.000      2.170      0.000      0.000 
     152      0.000      0.000      0.300      0.000 
     153      0.000      0.000      0.000      0.000 
     154      0.000      7.250      0.000      0.000 
     155      0.000      7.250      0.000      0.000 
     156      0.000      0.000      0.300      0.000 
     157      0.000      7.250      0.000      0.000 
     158      1.300     -0.200      0.200      0.000 
     159      0.000      0.000      0.000      0.000 
     160      0.000      0.000      0.000      0.000 
     161      0.000      7.250      0.000      0.000 
     162      0.000      0.000      0.300      0.000 
     163      0.000      7.250      0.000      0.000 
     164      0.000      7.250      0.000      0.000 
     165      0.000      0.000      0.462      0.000 
     166      0.000      7.250      0.000      0.000 
     167      0.000      0.000      0.300      0.000 
     168      0.000      0.000      0.000      0.000 
     169      0.000      0.000      0.300      0.000 
     170      0.000      0.000     -0.100      0.000 
     171      0.000      7.250      0.000      0.000 
     172      0.000      0.000      0.462      0.000 
     173      0.000      0.000     -0.100      0.000 
     174      0.000      0.000      0.000      0.000 
     175      0.000      0.000      0.462      0.000 
     176      0.000      7.250      0.000      0.000 
     177      0.000      0.000      0.468      0.000 
     178      0.000      0.000      0.300      0.000 
     179      0.000      0.000      0.300      0.000 
     180      0.000      0.000      0.000      0.000 
     181      0.000      0.000      0.300      0.000 
     182      0.000      7.250      0.000      0.000 
     183      0.000      7.250      0.000      0.000 
     184      0.000      7.250      0.000      0.000 
     185      0.000      0.000      0.000      0.000 
     186      0.000      0.000      0.468      0.000 
     187      0.000      7.250      0.000      0.000 
     188      0.000      7.250      0.000      0.000 
     189      0.000      0.000      0.300      0.000 
     190      0.000      0.000      0.300      0.000 
     191      0.000      5.124      0.000      0.000 
     192      0.000      7.250      0.000      0.000 
     193      0.000      7.250      0.000      0.000 
     194      0.000     10.750      0.000      0.000 
     195      0.000      7.250      0.000      0.000 
     196      0.000      0.000      0.300      0.000 
     197      0.000      0.000      0.000      0.000 
     198      0.000      0.000      0.300      0.000 
     199      0.000      0.000      0.300      0.000 
     200      0.000      5.000      0.000      0.000 
     201      0.000     10.000      0.000      0.000 
     202      0.000      0.000      0.000      0.000 
     203      1.300     -0.200      0.200      0.000 
     204      0.000      5.000      0.000      0.000 
     205      0.000      0.000      0.000      0.000 
     206      0.000      0.000      0.000      0.000 
     207      0.000      0.000      0.000      0.000 
     208      0.000      7.250      0.000      0.000 
     209      0.000      0.000     -0.100      0.000 

Improper Coeffs 

       1      2.500      -1       2 
       2     10.500      -1       2 
       3      0.000      -1       2 
       4      0.000      -1       2 
       5      2.500      -1       2 
       6      0.000      -1       2 
       7      0.000      -1       2 
       8      0.000      -1       2 
       9      0.000      -1       2 
      10      0.000      -1       2 
      11      0.000      -1       2 
      12      0.000      -1       2 
      13      0.000      -1       2 
      14      0.000      -1       2 
      15      0.000      -1       2 
      16      2.500      -1       2 
      17      0.000      -1       2 
      18      2.500      -1       2 
      19      2.500      -1       2 
      20      2.500      -1       2 
      21      2.500      -1       2 
      22      2.500      -1       2 
      23     10.500      -1       2 
      24      0.000      -1       2 
      25      2.500      -1       2 
      26      0.000      -1       2 
      27      2.500      -1       2 
      28      2.500      -1       2 
      29      2.500      -1       2 
      30      2.500      -1       2 
      31      2.500      -1       2 
      32      0.000      -1       2 
      33      0.000      -1       2 
      34      0.000      -1       2 
      35      0.000      -1       2 
      36      0.000      -1       2 
      37      0.000      -1       2 
      38      2.500      -1       2 
      39      0.000      -1       2 
      40      2.500      -1       2 
      41      2.500      -1       2 
      42      2.500      -1       2 
      43      2.500      -1       2 
      44      2.500      -1       2 
      45      0.000      -1       2 
      46      0.000      -1       2 
      47      0.000      -1       2 

Atoms 

     1      1      1 0.01570000    1.000  1.00000  0.00000
     2      1      2 -0.38210000   -0.423  1.00000  0.00000
     3      1      3 0.45930000   -1.080  1.00000  1.17872
     4      1      4 -0.19190000   -2.571  1.00183  0.87043
     5      1      5 -0.19000000   -3.476  1.00383  2.10338
     6      1      6 0.45770000   -4.964  1.00741  1.77518
     7      1      7 -0.37680000   -5.649  1.06798  2.93937
     8      1      8 0.01440000   -7.072  1.08466  2.88573
     9      1      9 -0.19100000   -7.587  1.15313  4.32179
    10      1     10 -0.08220000   -9.116  1.24291  4.43734
    11      1     11 -0.17330000   -9.518  1.24002  5.89352
    12      1     12 -0.15160000  -10.463  0.34085  6.46435
    13      1     13 -0.17360000  -10.451  0.67427  7.79064
    14      1     14 -0.10580000   -9.584  1.66422  7.94732
    15      1     15 -0.07800000   -8.976  2.07627  6.84861
    16      1     16 -0.43960000   -0.556  1.00000  2.25701
    17      1     17 0.14810000  -11.251  0.06449  8.88996
    18      1     18 -0.17310000  -10.486 -0.06636 10.25384
    19      1     19 -0.11420000  -11.994 -1.23825  8.58182
    20      1     20 -0.12930000  -13.347 -1.35469  8.91671
    21      1     21 -0.14550000  -14.067 -2.51736  8.65612
    22      1     22 -0.13220000  -13.441 -3.60556  8.04548
    23      1     23 -0.14710000  -12.089 -3.50585  7.70420
    24      1     24 -0.13610000  -11.384 -2.33995  7.97408
    25      1     25 0.09940000    1.366  0.11273  0.54208
    26      1     26 0.14510000   -2.799  0.12199  0.24272
    27      1     27 0.14510000   -2.799  1.87789  0.23894
    28      1     28 0.14520000   -3.243  1.87707  2.73745
    29      1     29 0.14520000   -3.260  0.11950  2.72805
    30      1     30 0.09820000   -7.428  0.16978  2.38051
    31      1     31 0.09820000   -7.401  1.96137  2.30271
    32      1     32 0.11940000   -7.134  2.03112  4.81800
    33      1     33 0.11940000   -7.231  0.26156  4.86829
    34      1     34 0.10270000   -9.585  0.37428  3.94883
    35      1     35 0.10270000   -9.490  2.14617  3.92453
    36      1     36 0.22540000  -11.082 -0.44416  6.02398
    37      1     37 0.12720000  -12.021  0.83054  9.09026
    38      1     38 0.11880000  -11.258 -0.22665 11.03177
    39      1     39 0.15160000  -13.859 -0.50889  9.39969
    40      1     40 0.15920000  -15.130 -2.57714  8.93299
    41      1     41 0.15880000  -14.006 -4.52619  7.83916
    42      1     42 0.15890000  -11.580 -4.35292  7.22179
    43      1     43 0.16010000  -10.320 -2.28090  7.70433
    44      1     44 -0.44090000   -5.466  0.96603  0.68667
    45      1     45 -0.06150000   -9.426 -1.18141 10.43929
    46      1     46 -0.08330000   -9.050 -1.30346 11.91586
    47      1     47 -0.14330000   -8.660 -0.20950 12.69286
    48      1     48 -0.14660000   -8.324 -0.35298 14.03832
    49      1     49 -0.14810000   -8.374 -1.61183 14.64002
    50      1     50 -0.14720000   -8.761 -2.71689 13.87880
    51      1     51 -0.14670000   -9.093 -2.55647 12.53782
    52      1     52 0.10300000   -9.926 -2.12571 10.16305
    53      1     53 0.15160000   -8.614  0.78873 12.23550
    54      1     54 0.15220000   -8.020  0.52743 14.62297
    55      1     55 0.15080000   -8.109 -1.73014 15.70015
    56      1     56 0.15010000   -8.805 -3.71497 14.34153
    57      1     57 0.14490000   -9.395 -3.43540 11.94980
    58      1     58 0.09940000    1.366  1.90415  0.51663
    59      1     59 -0.16020000   -8.139 -1.13253  9.56615
    60      1     60 -0.13330000   -7.147  0.02364  9.77910
    61      1     61 0.09110000   -8.429 -1.14179  8.50111
    62      1     62 0.09110000   -7.606 -2.08809  9.72798
    63      1     63 0.10940000   -6.743  0.00048 10.80574
    64      1     64 0.10940000   -7.662  0.99122  9.67864
    65      1     65 -0.08490000   -5.999 -0.07844  8.79272
    66      1     66 -0.15130000   -5.016 -1.05988  8.93794
    67      1     67 -0.15310000   -3.956 -1.16731  8.03885
    68      1     68 -0.15220000   -3.862 -0.28019  6.96412
    69      1     69 -0.14880000   -4.839  0.70690  6.80686
    70      1     70 -0.14480000   -5.889  0.80142  7.71575
    71      1     71 0.11880000  -10.046  0.91648 10.49530
    72      1     72 0.14290000   -5.086 -1.76201  9.78252
    73      1     73 0.14580000   -3.195 -1.94917  8.17796
    74      1     74 0.14880000   -3.029 -0.35627  6.25038
    75      1     75 0.15470000   -4.779  1.40966  5.96255
    76      1     76 0.17060000   -6.648  1.58559  7.58516
    77      1     77 -0.24830000    1.460  0.97610 -1.45545
    78      1     78 0.09900000    2.558  0.97345 -1.53836
    79      1     79 0.09900000    1.082  1.85695 -1.99739
    80      1     80 0.09900000    1.082  0.07506 -1.96506

Bonds 

     1      1      2      1
     2      2      3      2
     3      3      4      3
     4      4      5      4
     5      5      6      5
     6      6      7      6
     7      7      8      7
     8      8      9      8
     9      9     10      9