LAMMPS data file Created by LigParGen - (Written by Leela S. Dodda)

      55 atoms
      56 bonds
     100 angles
     143 dihedrals
      33 impropers
 
      55 atom types
      56 bond types
     100 angle types
     143 dihedral types
      33 improper types
 
   -3.593270    46.406730 xlo xhi
   -6.653180    43.346820 ylo yhi
   -3.940790    46.059210 zlo zhi

Masses

       1     12.011  
       2      1.008  
       3      1.008  
       4     12.011  
       5     12.011  
       6      1.008  
       7      1.008  
       8     12.011  
       9      1.008  
      10     12.011  
      11     12.011  
      12     12.011  
      13      1.008  
      14     12.011  
      15      1.008  
      16     12.011  
      17      1.008  
      18      1.008  
      19      1.008  
      20     12.011  
      21     12.011  
      22      1.008  
      23      1.008  
      24     12.011  
      25      1.008  
      26     12.011  
      27     12.011  
      28     12.011  
      29      1.008  
      30     12.011  
      31      1.008  
      32     12.011  
      33      1.008  
      34      1.008  
      35      1.008  
      36     12.011  
      37     12.011  
      38     15.999  
      39     15.999  
      40     12.011  
      41     12.011  
      42      1.008  
      43      1.008  
      44      1.008  
      45      1.008  
      46      1.008  
      47     12.011  
      48     12.011  
      49      1.008  
      50      1.008  
      51      1.008  
      52      1.008  
      53      1.008  
      54      1.008  
      55      1.008  

Pair Coeffs 

       1      0.066  3.5000000 
       2      0.030  2.5000000 
       3      0.030  2.5000000 
       4      0.066  3.5000000 
       5      0.066  3.5000000 
       6      0.030  2.5000000 
       7      0.030  2.5000000 
       8      0.070  3.5500000 
       9      0.030  2.5000000 
      10      0.070  3.5500000 
      11      0.070  3.5500000 
      12      0.070  3.5500000 
      13      0.030  2.4200000 
      14      0.070  3.5500000 
      15      0.030  2.4200000 
      16      0.070  3.5500000 
      17      0.030  2.4200000 
      18      0.030  2.4200000 
      19      0.030  2.4200000 
      20      0.066  3.5000000 
      21      0.066  3.5000000 
      22      0.030  2.5000000 
      23      0.030  2.5000000 
      24      0.070  3.5500000 
      25      0.030  2.5000000 
      26      0.070  3.5500000 
      27      0.070  3.5500000 
      28      0.070  3.5500000 
      29      0.030  2.4200000 
      30      0.070  3.5500000 
      31      0.030  2.4200000 
      32      0.070  3.5500000 
      33      0.030  2.4200000 
      34      0.030  2.4200000 
      35      0.030  2.4200000 
      36      0.066  3.5000000 
      37      0.070  3.5500000 
      38      0.210  2.9600000 
      39      0.140  2.9000000 
      40      0.066  3.5000000 
      41      0.066  3.5000000 
      42      0.030  2.5000000 
      43      0.030  2.5000000 
      44      0.030  2.5000000 
      45      0.030  2.5000000 
      46      0.030  2.5000000 
      47      0.066  3.5000000 
      48      0.066  3.5000000 
      49      0.030  2.5000000 
      50      0.030  2.5000000 
      51      0.030  2.5000000 
      52      0.030  2.5000000 
      53      0.030  2.5000000 
      54      0.030  2.5000000 
      55      0.030  2.5000000 

Bond Coeffs 

       1   340.0000     1.0900 
       2   340.0000     1.0900 
       3   268.0000     1.5290 
       4   268.0000     1.5290 
       5   340.0000     1.0900 
       6   340.0000     1.0900 
       7   317.0000     1.5100 
       8   340.0000     1.0900 
       9   469.0000     1.4000 
      10   469.0000     1.4000 
      11   469.0000     1.4000 
      12   367.0000     1.0800 
      13   469.0000     1.4000 
      14   367.0000     1.0800 
      15   469.0000     1.4000 
      16   367.0000     1.0800 
      17   367.0000     1.0800 
      18   367.0000     1.0800 
      19   268.0000     1.5290 
      20   268.0000     1.5290 
      21   340.0000     1.0900 
      22   340.0000     1.0900 
      23   317.0000     1.5100 
      24   340.0000     1.0900 
      25   469.0000     1.4000 
      26   469.0000     1.4000 
      27   469.0000     1.4000 
      28   367.0000     1.0800 
      29   469.0000     1.4000 
      30   367.0000     1.0800 
      31   469.0000     1.4000 
      32   367.0000     1.0800 
      33   367.0000     1.0800 
      34   367.0000     1.0800 
      35   268.0000     1.5290 
      36   317.0000     1.5220 
      37   570.0000     1.2290 
      38   214.0000     1.3270 
      39   320.0000     1.4100 
      40   268.0000     1.5290 
      41   340.0000     1.0900 
      42   340.0000     1.0900 
      43   340.0000     1.0900 
      44   340.0000     1.0900 
      45   340.0000     1.0900 
      46   268.0000     1.5290 
      47   268.0000     1.5290 
      48   340.0000     1.0900 
      49   340.0000     1.0900 
      50   340.0000     1.0900 
      51   340.0000     1.0900 
      52   340.0000     1.0900 
      53   340.0000     1.0900 
      54   340.0000     1.0900 
      55   469.0000     1.4000 
      56   469.0000     1.4000 

Angle Coeffs 

       1     33.000    107.800
       2     58.350    112.700
       3     37.500    110.700
       4     37.500    110.700
       5     37.500    110.700
       6     63.000    114.000
       7     37.500    110.700
       8     70.000    120.000
       9     70.000    120.000
      10     63.000    120.000
      11     35.000    120.000
      12     63.000    120.000
      13     35.000    120.000
      14     63.000    120.000
      15     35.000    120.000
      16     35.000    120.000
      17     35.000    120.000
      18     58.350    112.700
      19     58.350    112.700
      20     37.500    110.700
      21     37.500    110.700
      22     63.000    114.000
      23     37.500    110.700
      24     70.000    120.000
      25     70.000    120.000
      26     63.000    120.000
      27     35.000    120.000
      28     63.000    120.000
      29     35.000    120.000
      30     63.000    120.000
      31     35.000    120.000
      32     35.000    120.000
      33     35.000    120.000
      34     58.350    112.700
      35     63.000    111.100
      36     80.000    120.400
      37     81.000    111.400
      38     83.000    116.900
      39     50.000    109.500
      40     35.000    109.500
      41     35.000    109.500
      42     37.500    110.700
      43     37.500    110.700
      44     37.500    110.700
      45     58.350    112.700
      46     58.350    112.700
      47     37.500    110.700
      48     37.500    110.700
      49     37.500    110.700
      50     37.500    110.700
      51     37.500    110.700
      52     37.500    110.700
      53     33.000    107.800
      54     63.000    114.000
      55     35.000    120.000
      56     33.000    107.800
      57     63.000    120.000
      58     35.000    120.000
      59     63.000    114.000
      60     63.000    111.100
      61     35.000    120.000
      62     63.000    120.000
      63     83.000    123.400
      64     33.000    107.800
      65     35.000    120.000
      66     63.000    120.000
      67     37.500    110.700
      68     35.000    120.000
      69     58.350    112.700
      70     35.000    120.000
      71     63.000    120.000
      72     37.500    110.700
      73     63.000    120.000
      74     33.000    107.800
      75     35.000    120.000
      76     33.000    107.800
      77     33.000    107.800
      78     33.000    107.800
      79     37.500    110.700
      80     37.500    110.700
      81     35.000    120.000
      82     33.000    107.800
      83     37.500    110.700
      84     33.000    107.800
      85     37.500    110.700
      86     35.000    109.500
      87     37.500    110.700
      88     37.500    110.700
      89     35.000    109.500
      90     63.000    111.100
      91     35.000    120.000
      92     33.000    107.800
      93     35.000    120.000
      94     33.000    107.800
      95     37.500    110.700
      96     33.000    107.800
      97     37.500    110.700
      98     63.000    120.000
      99     33.000    107.800
     100     33.000    107.800

Dihedral Coeffs  

       1      0.000      0.000      0.300      0.000 
       2      0.000      0.000      0.300      0.000 
       3      0.000      0.000      0.000      0.000 
       4      0.000      7.250      0.000      0.000 
       5      0.000      7.250      0.000      0.000 
       6      0.000      7.250      0.000      0.000 
       7      1.300     -0.200      0.200      0.000 
       8      0.000      0.000      0.300      0.000 
       9      0.000      0.000      0.000      0.000 
      10      0.000      7.250      0.000      0.000 
      11      0.000      7.250      0.000      0.000 
      12      0.000      7.250      0.000      0.000 
      13     -2.060     -0.313      0.315      0.000 
      14      0.000      0.000      0.000      0.000 
      15      4.669      5.124      0.000      0.000 
      16     -1.220     -0.126      0.422      0.000 
      17      0.000      0.000      0.468      0.000 
      18      0.000      0.000      0.300      0.000 
      19      0.000      0.000      0.300      0.000 
      20      0.000      0.000      0.300      0.000 
      21      0.000      0.000      0.462      0.000 
      22      0.000      0.000      0.300      0.000 
      23      0.000      7.250      0.000      0.000 
      24      0.000      7.250      0.000      0.000 
      25      0.000      7.250      0.000      0.000 
      26      0.000      7.250      0.000      0.000 
      27      0.000      0.000     -0.100      0.000 
      28      0.000      0.000      0.300      0.000 
      29      0.000      5.124      0.000      0.000 
      30      0.000      0.000      0.300      0.000 
      31      0.000      7.250      0.000      0.000 
      32      0.000      0.000      0.462      0.000 
      33      0.000      7.250      0.000      0.000 
      34      0.000      7.250      0.000      0.000 
      35      0.000      7.250      0.000      0.000 
      36      0.000      7.250      0.000      0.000 
      37      0.000      7.250      0.000      0.000 
      38      0.000      0.000      0.300      0.000 
      39      0.000      7.250      0.000      0.000 
      40      1.300     -0.200      0.200      0.000 
      41      0.000      7.250      0.000      0.000 
      42      0.000      0.000      0.300      0.000 
      43      0.000      0.000      0.300      0.000 
      44      0.000      0.000      0.462      0.000 
      45      0.000      0.000      0.000      0.000 
      46      0.000      7.250      0.000      0.000 
      47      0.000      7.250      0.000      0.000 
      48      0.000      0.000      0.300      0.000 
      49      0.000      7.250      0.000      0.000 
      50      0.000      0.000      0.000      0.000 
      51      0.000      0.000     -0.100      0.000 
      52      1.300     -0.200      0.200      0.000 
      53      0.000      0.000      0.300      0.000 
      54      0.000      0.000      0.462      0.000 
      55      0.000      0.000      0.300      0.000 
      56      0.000      0.000     -0.553      0.000 
      57      0.000      0.000      0.462      0.000 
      58      0.000      0.000      0.300      0.000 
      59      0.000      7.250      0.000      0.000 
      60      0.000      0.000      0.300      0.000 
      61      0.000      0.000      0.000      0.000 
      62      0.000      0.000      0.300      0.000 
      63      0.000      7.250      0.000      0.000 
      64      0.000      7.250      0.000      0.000 
      65      0.000      0.000      0.300      0.000 
      66      0.000      0.000     -0.100      0.000 
      67      0.000      0.000      0.300      0.000 
      68      1.300     -0.200      0.200      0.000 
      69      0.000      0.000      0.300      0.000 
      70      0.000      0.000      0.300      0.000 
      71      1.300     -0.200      0.200      0.000 
      72      0.000      0.000      0.300      0.000 
      73      0.000      7.250      0.000      0.000 
      74      0.000      0.000     -0.100      0.000 
      75      0.000      7.250      0.000      0.000 
      76      0.000      7.250      0.000      0.000 
      77      0.000      0.000      0.300      0.000 
      78      0.000      7.250      0.000      0.000 
      79      0.000      0.000      0.300      0.000 
      80      0.000      0.000     -0.553      0.000 
      81      0.000      0.000      0.468      0.000 
      82      0.000      0.000      0.462      0.000 
      83      0.000      7.250      0.000      0.000 
      84      0.000      7.250      0.000      0.000 
      85      0.000      7.250      0.000      0.000 
      86      1.300     -0.200      0.200      0.000 
      87      0.000      0.000      0.300      0.000 
      88      0.000      0.000      0.300      0.000 
      89      0.000      7.250      0.000      0.000 
      90      0.000      0.000      0.300      0.000 
      91      0.000      0.000      0.462      0.000 
      92      0.000      0.000      0.198      0.000 
      93      0.000      0.000      0.000      0.000 
      94      0.000      0.000     -0.100      0.000 
      95      0.000      0.000      0.000      0.000 
      96      0.000      0.000      0.300      0.000 
      97      0.000      7.250      0.000      0.000 
      98      0.000      0.000      0.300      0.000 
      99      0.000      0.000      0.300      0.000 
     100      0.000      7.250      0.000      0.000 
     101      0.000      0.000      0.462      0.000 
     102      0.000      7.250      0.000      0.000 
     103      0.000      0.000      0.300      0.000 
     104      0.000      0.000      0.300      0.000 
     105      0.000      0.000      0.000      0.000 
     106      0.000      0.000      0.000      0.000 
     107      0.000      0.000     -0.100      0.000 
     108      0.000      7.250      0.000      0.000 
     109      0.000      0.000      0.198      0.000 
     110      0.000      7.250      0.000      0.000 
     111      0.000      0.000      0.300      0.000 
     112      0.000      7.250      0.000      0.000 
     113      0.000      0.000     -0.553      0.000 
     114      0.000      0.000      0.000      0.000 
     115      1.300     -0.200      0.200      0.000 
     116      0.000      7.250      0.000      0.000 
     117      0.000      7.250      0.000      0.000 
     118      0.000      7.250      0.000      0.000 
     119      0.000      7.250      0.000      0.000 
     120      0.000      7.250      0.000      0.000 
     121      0.000      0.000      0.300      0.000 
     122      0.000      0.000      0.468      0.000 
     123      0.000      0.000      0.462      0.000 
     124      0.000      0.000      0.300      0.000 
     125      0.000      0.000     -0.100      0.000 
     126      0.000      7.250      0.000      0.000 
     127      0.000      0.000      0.000      0.000 
     128      0.000      0.000      0.000      0.000 
     129      0.000      7.250      0.000      0.000 
     130      0.000      7.250      0.000      0.000 
     131      0.000      0.000      0.300      0.000 
     132      0.000      0.000      0.000      0.000 
     133      0.000      0.000      0.300      0.000 
     134      0.000      7.250      0.000      0.000 
     135      0.000      0.000      0.000      0.000 
     136      0.000      0.000      0.300      0.000 
     137      0.000      0.000      0.300      0.000 
     138      0.000      0.000     -0.100      0.000 
     139      1.300     -0.200      0.200      0.000 
     140      0.000      7.250      0.000      0.000 
     141      0.000      0.000      0.300      0.000 
     142      0.000      0.000      0.300      0.000 
     143      0.000      0.000      0.300      0.000 

Improper Coeffs 

       1      0.000      -1       2 
       2      0.000      -1       2 
       3      0.000      -1       2 
       4      0.000      -1       2 
       5      2.500      -1       2 
       6      2.500      -1       2 
       7      2.500      -1       2 
       8      2.500      -1       2 
       9      2.500      -1       2 
      10      2.500      -1       2 
      11      0.000      -1       2 
      12      0.000      -1       2 
      13      0.000      -1       2 
      14      0.000      -1       2 
      15      2.500      -1       2 
      16      2.500      -1       2 
      17      2.500      -1       2 
      18      2.500      -1       2 
      19      2.500      -1       2 
      20      2.500      -1       2 
      21      0.000      -1       2 
      22     10.500      -1       2 
      23      0.000      -1       2 
      24      0.000      -1       2 
      25      0.000      -1       2 
      26      0.000      -1       2 
      27      0.000      -1       2 
      28      0.000      -1       2 
      29      0.000      -1       2 
      30      0.000      -1       2 
      31      0.000      -1       2 
      32      0.000      -1       2 
      33      0.000      -1       2 

Atoms 

     1      1      1 -0.13250000    1.000  1.00000  0.00000
     2      1      2 0.03840000   -0.140  1.00000  0.00000
     3      1      3 0.29920000    1.379  1.00000 -1.07531
     4      1      4 -0.19310000    0.327 -1.22975  0.87616
     5      1      5 0.01020000    1.515 -0.26557  0.72926
     6      1      6 0.10430000   -0.513 -0.68659  1.42329
     7      1      7 0.10430000    0.644 -2.12887  1.50126
     8      1      8 -0.07300000    2.124  0.13767  2.06128
     9      1      9 0.09790000    2.340 -0.72416  0.09019
    10      1     10 -0.14220000    1.366  0.70019  3.08774
    11      1     11 -0.14220000    3.489 -0.05209  2.28416
    12      1     12 -0.15200000    1.945  1.06450  4.30114
    13      1     13 0.15090000    0.251  0.86058  2.91539
    14      1     14 -0.15200000    4.087  0.30505  3.48947
    15      1     15 0.15090000    4.140 -0.51050  1.46868
    16      1     16 -0.15020000    3.312  0.86827  4.50898
    17      1     17 0.15330000    1.301  1.52132  5.12379
    18      1     18 0.15330000    5.204  0.14005  3.64419
    19      1     19 0.15240000    3.785  1.16764  5.50185
    20      1     20 -0.14970000   -1.421 -0.03507 -0.62262
    21      1     21 -0.06350000   -0.234 -1.79002 -0.45641
    22      1     22 0.11030000   -1.684  0.31389  0.43038
    23      1     23 0.11030000   -2.392 -0.28416 -1.16614
    24      1     24 -0.07620000   -0.889 -3.13154 -0.16587
    25      1     25 0.12220000    0.635 -1.95541 -1.17423
    26      1     26 -0.14220000   -2.054 -3.23887  0.59321
    27      1     27 -0.14220000   -0.323 -4.30666 -0.66281
    28      1     28 -0.15080000   -2.640 -4.47502  0.85196
    29      1     29 0.15100000   -2.524 -2.28584  1.00532
    30      1     30 -0.15080000   -0.894 -5.55184 -0.41508
    31      1     31 0.15100000    0.630 -4.25981 -1.28657
    32      1     32 -0.14890000   -2.060 -5.64109  0.34710
    33      1     33 0.15420000   -3.593 -4.53365  1.47457
    34      1     34 0.15420000   -0.411 -6.49560 -0.83428
    35      1     35 0.15320000   -2.540 -6.65318  0.55996
    36      1     36 -0.12900000   -0.814  1.16536 -1.38930
    37      1     37 0.45750000   -1.806  2.33974 -1.33072
    38      1     38 -0.44610000   -2.847  2.41959 -0.71885
    39      1     39 -0.38740000   -1.327  3.34779 -2.11013
    40      1     40 0.00830000   -2.093  4.56935 -2.21698
    41      1     41 -0.26440000   -1.381  5.47852 -3.09578
    42      1     42 0.10300000   -2.205  5.04159 -1.18554
    43      1     43 0.10300000   -3.122  4.33471 -2.64809
    44      1     44 0.10470000   -0.896  4.88658 -3.94079
    45      1     45 0.10470000   -0.576  6.02536 -2.50300
    46      1     46 0.10470000   -2.114  6.23444 -3.53279
    47      1     47 0.10120000    0.534  1.65457 -0.80978
    48      1     48 -0.24450000   -0.586  0.81984 -2.88391
    49      1     49 0.01500000    0.546  2.79433 -0.78899
    50      1     50 0.01500000    1.387  1.27684 -1.46488
    51      1     51 -0.33290000    0.659  1.25335  0.24996
    52      1     52 0.09620000   -0.582 -0.31269 -3.01463
    53      1     53 0.09620000    0.417  1.24517 -3.22194
    54      1     54 0.09620000   -1.424  1.27233 -3.50992
    55      1     55 0.03840000    1.379  1.93163  0.53683

Bonds 

     1      1      2      1
     2      2      3      1
     3      3      4      5
     4      4      5      1
     5      5      6      4
     6      6      7      4
     7      7      8      5
     8      8      9      5
     9      9     10      8
    10     10     11      8
    11     11     12     10
    12     12     13     10
    13     13     14     11
    14     14     15     11
    15     15     16     12
    16     16     17     12
    17     17     18     14
    18     18     19     16
    19     19     20     21
    20     20     21      4
    21     21     22     20
    22     22     23     20
    23     23     24     21
    24     24     25     21
    25     25     26     24
    26     26     27     24
    27     27     28     26
    28     28     29     26
    29     29     30     27
    30     30     31     27
    31     31     32     28
    32     32     33     28
    33     33     34     30
    34     34     35     32
    35     35     36     20
    36     36     37     36
    37     37     38     37
    38     38     39     37
    39     39     40     39
    40     40     41     40
    41     41     42     40
    42     42     43     40
    43     43     44     41
    44     44     45     41
    45     45     46     41
    46     46     47     36
    47     47     48     36
    48     48     49     47
    49     49     50     47
    50     50     51     47
    51     51     52     48
    52     52     53     48
    53     53     54     48
    54     54     55      1
    55     55     16     14
    56     56     32     30

Angles 

     1      1      2      1      3
     2      2      1      5      4
     3      3      2      1      5
     4      4      5      4      6
     5      5      5      4      7
     6      6      1      5      8
     7      7      1      5      9
     8      8      5      8     10
     9      9      5      8     11
    10     10      8     10     12
    11     11      8     10     13
    12     12      8     11     14
    13     13      8     11     15
    14     14     10     12     16
    15     15     10     12     17
    16     16     11     14     18
    17     17     12     16     19
    18     18      4     21     20
    19     19      5      4     21
    20     20     21     20     22
    21     21     21     20     23
    22     22      4     21     24
    23     23      4     21     25
    24     24     21     24     26
    25     25     21     24     27
    26     26     24     26     28
    27     27     24     26     29
    28     28     24     27     30
    29     29     24     27     31
    30     30     26     28     32
    31     31     26     28     33
    32     32     27     30     34
    33     33     28     32     35
    34     34     21     20     36
    35     35     20     36     37
    36     36     36     37     38
    37     37     36     37     39
    38     38     37     39     40
    39     39     39     40     41
    40     40     39     40     42
    41     41     39     40     43
    42     42     40     41     44
    43     43     40     41     45
    44     44     40     41     46
    45     45     20     36     47
    46     46     20     36     48
    47     47     36     47     49
    48     48     36     47     50
    49     49     36     47     51
    50     50     36     48     52
    51     51     36     48     53
    52     52     36     48     54
    53     53      2      1     55
    54     54      4      5      8
    55     55     16     14     18
    56     56     53     48     54
    57     57     12     16     14
    58     58     32     30     34
    59     59     20     21     24
    60     60     37     36     48
    61     61     28     26     29
    62     62     28     32     30
    63     63     38     37     39
    64     64     49     47     51
    65     65     16     12     17
    66     66     10      8     11
    67     67      5      1     55
    68     68     32     28     33
    69     69     47     36     48
    70     70     14     16     19
    71     71     27     30     32
    72     72     23     20     36
    73     73     11     14     16
    74     74     52     48     54
    75     75     30     27     31
    76     76     45     41     46
    77     77     42     40     43
    78     78     52     48     53
    79     79      7      4     21
    80     80     41     40     43
    81     81     30     32     35
    82     82     50     47     51
    83     83      3      1      5
    84     84     49     47     50
    85     85     20     21     25
    86     86     24     21     25
    87     87      4      5      9
    88     88     22     20     36
    89     89      8      5      9
    90     90     37     36     47
    91     91     14     11     15
    92     92      6      4      7
    93     93     12     10     13
    94     94     44     41     45
    95     95      6      4     21
    96     96      3      1     55
    97     97     41     40     42
    98     98     26     24     27
    99     99     22     20     23
   100    100     44     41     46

Dihedrals

     1      1      4      5      1      2 
     2      2      6      4      5      1 
     3      3     10      8      5      1 
     4      4     12     10      8      5 
     5      5     14     11      8      5 
     6      6     16     12     10      8 
     7      7     20     21      4      5 
     8      8     22     20     21      4 
     9      9     26     24     21      4 
    10     10     28     26     24     21 
    11     11     30     27     24     21 
    12     12     32     28     26     24 
    13     13     37     36     20     21 
    14     14     38     37     36     20 
    15     15     40     39     37     36 
    16     16     41     40     39     37 
    17     17     44     41     40     39 
    18     18     49     47     36     20 
    19     19     52     48     36     20 
    20     20      9      5      1      2 
    21     21      8      5      1      3 
    22     22     25     21      4      6 
    23     23     30     27     24     26 
    24     24     17     12     10     13 
    25     25     16     14     11      8 
    26     26     35     32     28     26 
    27     27     54     48     36     37 
    28     28     55      1      5      4 
    29     29     40     39     37     38 
    30     30      9      5      1      3 
    31     31     19     16     12     10 
    32     32      8      5      1      2 
    33     33     35     32     30     34 
    34     34     19     16     12     17 
    35     35     32     30     27     24 
    36     36     32     28     26     29 
    37     37     12     10      8     11 
    38     38     49     47     36     48 
    39     39     17     12     16     14 
    40     40     36     20     21      4 
    41     41     34     30     27     31 
    42     42     55      1      5      9 
    43     43      9      5      4      6 
    44     44      8      5      4      7 
    45     45     27     24     21      4 
    46     46     34     30     27     24 
    47     47     35     32     28     33 
    48     48     53     48     36     20 
    49     49     31     27     24     26 
    50     50     27     24     21     20 
    51     51     49     47     36     37 
    52     52     21      4      5      8 
    53     53     20     21      4      6 
    54     54      8      5      4      6 
    55     55     54     48     36     47 
    56     56     48     36     37     39 
    57     57     24     21     20     23 
    58     58     25     21     20     22 
    59     59     12     16     14     11 
    60     60     50     47     36     20 
    61     61     10      8      5      4 
    62     62     54     48     36     20 
    63     63     29     26     24     27 
    64     64     15     11      8      5 
    65     65     51     47     36     48 
    66     66     37     36     20     23 
    67     67     36     20     21     25 
    68     68     24     21      4      5 
    69     69     50     47     36     48 
    70     70     47     36     20     22 
    71     71     48     36     20     21 
    72     72     44     41     40     42 
    73     73     14     11      8     10 
    74     74     52     48     36     37 
    75     75     13     10      8     11 
    76     76     16     14     11     15 
    77     77      7      4      5      1 
    78     78     33     28     32     30 
    79     79      4      5      1      3 
    80     80     39     37     36     20 
    81     81     46     41     40     39 
    82     82     24     21     20     22 
    83     83     33     28     26     29 
    84     84     29     26     24     21 
    85     85     32     30     27     31 
    86     86     21      4      5      1 
    87     87     44     41     40     43 
    88     88     45     41     40     42 
    89     89     14     16     12     10 
    90     90     48     36     20     23 
    91     91     24     21      4      6 
    92     92     43     40     39     37 
    93     93     26     24     21     20 
    94     94     50     47     36     37 
    95     95     27     24     21     25 
    96     96      9      5      4      7 
    97     97     16     12     10     13 
    98     98     45     41     40     43 
    99     99     46     41     40     42 
   100    100     28     32     30     27 
   101    101     55      1      5      8 